<?xml version="1.0"?>
<VTKFile type="UnstructuredGrid"  version="0.1"  >
<UnstructuredGrid>
<Piece  NumberOfPoints="2868" NumberOfCells="5400">
<Points>
<DataArray  type="Float64"  NumberOfComponents="3"  format="ascii">0.534923 0.326073 0  0.510642 0.314196 0  0.466125 0.293082 0  0.436448 0.281205 0  0.409468 0.275927 0  0.368998 0.270648 0  0.35281 0.275927 0  0.381139 0.302319 0  0.405421 0.326073 0  0.410817 0.33531 0  0.408119 0.349826 0  0.400025 0.357744 0  0.375743 0.368301 0  0.329878 0.392055 0  0.297502 0.432963 0  0.282663 0.476511 0  0.285361 0.524018 0  0.298851 0.572845 0  0.317737 0.6045160000000001 0  0.337972 0.6361869999999999 0  0.360904 0.674457 0  0.368998 0.69953 0  0.359555 0.7219640000000001 0  0.360904 0.757594 0  0.370347 0.766831 0  0.381139 0.762872 0  0.390582 0.741758 0  0.404072 0.720644 0  0.424307 0.707448 0  0.447239 0.702169 0  0.480964 0.704808 0  0.479615 0.6889729999999999 0  0.468823 0.675776 0  0.447239 0.6691780000000001 0  0.428354 0.6691780000000001 0  0.410817 0.6639 0  0.404072 0.653343 0  0.395978 0.628269 0  0.387884 0.59132 0  0.389233 0.576804 0  0.397327 0.557009 0  0.410817 0.547772 0  0.424307 0.546452 0  0.437797 0.55305 0  0.44589 0.5662469999999999 0  0.441843 0.582082 0  0.439145 0.5979179999999999 0  0.449937 0.609795 0  0.468823 0.603196 0  0.479615 0.59 0  0.489058 0.570205 0  0.494454 0.546452 0  0.505246 0.522699 0  0.522783 0.509502 0  0.55246 0.494986 0  0.586185 0.484429 0  0.615863 0.48047 0  0.64554 0.473872 0  0.6671240000000001 0.461995 0  0.683312 0.451438 0  0.696802 0.435603 0  0.703547 0.417128 0  0.7116400000000001 0.393374 0  0.7183850000000001 0.37226 0  0.7251300000000001 0.364342 0  0.739969 0.353785 0  0.7453650000000001 0.344548 0  0.7453650000000001 0.327393 0  0.737271 0.318155 0  0.7183850000000001 0.316835 0  0.7008490000000001 0.319475 0  0.677916 0.318155 0  0.650936 0.316835 0  0.610467 0.318155 0  0.57944 0.324753 0  0.559205 0.328712 0  0.5389699999999999 0.326073 0  1 1 0  1 0 0  0 0 0  0 1 0  0.532238 0.32476 0  0.528748 0.323052 0  0.52421 0.320833 0  0.518311 0.317947 0  0.503447 0.310783 0  0.494093 0.306347 0  0.481933 0.30058 0  0.452151 0.28749 0  0.392327 0.273691 0  0.379141 0.271971 0  0.360474 0.283066 0  0.369797 0.291752 0  0.391424 0.31238 0  0.399335 0.32012 0  0.40958 0.341964 0  0.393939 0.36039 0  0.386028 0.36383 0  0.364248 0.374254 0  0.349304 0.381994 0  0.315801 0.409841 0  0.292986 0.551616 0  0.350934 0.657818 0  0.360127 0.737055 0  0.360566 0.748664 0  0.385245 0.753692 0  0.396447 0.732578 0  0.466301 0.703661 0  0.459439 0.672908 0  0.418442 0.666195 0  0.400553 0.642441 0  0.39255 0.612619 0  0.389913 0.60058 0  0.392752 0.568197 0  0.444131 0.573132 0  0.458149 0.606926 0  0.5005540000000001 0.533026 0  0.571522 0.489019 0  0.632637 0.476741 0  0.689177 0.444553 0  0.708121 0.403702 0  0.715453 0.38144 0  0.732406 0.359166 0  0.7453650000000001 0.337089 0  0.72906 0.317581 0  0.629879 0.317522 0  0.59293 0.321884 0  0.568003 0.326991 0  0.55202 0.327775 0  0.546493 0.327054 0  0.542241 0.326499 0  1 0.9 0  1 0.8 0  1 0.7 0  1 0.6 0  1 0.5 0  1 0.4 0  1 0.3 0  1 0.2 0  1 0.1 0  0.9 0 0  0.8 0 0  0.7 0 0  0.6 0 0  0.5 0 0  0.4 0 0  0.3 0 0  0.2 0 0  0.1 0 0  0.1 1 0  0.2 1 0  0.3 1 0  0.4 1 0  0.5 1 0  0.6 1 0  0.7 1 0  0.8 1 0  0.9 1 0  0 0.1 0  0 0.2 0  0 0.3 0  0 0.4 0  0 0.5 0  0 0.6 0  0 0.7 0  0 0.8 0  0 0.9 0  0.535686 0.5031910000000001 0  0.753987 0.733359 0  0.167145 0.741436 0  0.173378 0.257204 0  0.733497 0.159862 0  0.554096 0.15788 0  0.849187 0.479053 0  0.488793 0.838452 0  0.138507 0.5592 0  0.30686 0.154944 0  0.348904 0.890523 0  0.058006 0.065099 0  0.06984899999999999 0.937917 0  0.93633 0.939704 0  0.934625 0.053613 0  0.343397 0.333452 0  0.473272 0.639943 0  0.433266 0.638072 0  0.415174 0.58269 0  0.533435 0.545042 0  0.390848 0.340652 0  0.53655 0.320242 0  0.127966 0.393775 0  0.83861 0.850455 0  0.635242 0.8551299999999999 0  0.852158 0.633441 0  0.653427 0.626848 0  0.861226 0.24292 0  0.166128 0.12976 0  0.216875 0.8698709999999999 0  0.458305 0.11179 0  0.84446 0.101633 0  0.202024 0.642528 0  0.644825 0.115855 0  0.671342 0.218358 0  0.251354 0.286186 0  0.262388 0.75153 0  0.063044 0.751571 0  0.068189 0.242962 0  0.435781 0.9053949999999999 0  0.934144 0.451133 0  0.568393 0.237622 0  0.814984 0.395506 0  0.752951 0.517227 0  0.456254 0.780699 0  0.073352 0.531116 0  0.337731 0.206071 0  0.363213 0.960371 0  0.330742 0.363592 0  0.516613 0.55705 0  0.369057 0.332992 0  0.500926 0.617309 0  0.498004 0.665534 0  0.412142 0.61178 0  0.454233 0.6366039999999999 0  0.422782 0.567496 0  0.541193 0.5214800000000001 0  0.439761 0.65557 0  0.5163 0.533672 0  0.414775 0.64562 0  0.40073 0.576135 0  0.430362 0.5880339999999999 0  0.385432 0.351492 0  0.400298 0.335397 0  0.398325 0.348194 0  0.528702 0.314885 0  0.540814 0.322334 0  0.534477 0.322953 0  0.619095 0.743583 0  0.885162 0.737972 0  0.08076 0.668849 0  0.90734 0.36634 0  0.09468699999999999 0.868937 0  0.759838 0.912152 0  0.901518 0.540898 0  0.747285 0.607479 0  0.229182 0.071641 0  0.06915399999999999 0.450091 0  0.244775 0.203309 0  0.076534 0.331755 0  0.897847 0.167826 0  0.578909 0.911415 0  0.07713299999999999 0.146341 0  0.477215 0.203448 0  0.922631 0.869341 0  0.517415 0.074785 0  0.297026 0.827793 0  0.7832710000000001 0.246505 0  0.74519 0.061079 0  0.36033 0.069068 0  0.210313 0.475228 0  0.859426 0.928758 0  0.5745479999999999 0.609182 0  0.243069 0.383398 0  0.283099 0.934598 0  0.417416 0.843141 0  0.643942 0.553164 0  0.112687 0.079336 0  0.281357 0.658386 0  0.765043 0.436177 0  0.611361 0.198486 0  0.234496 0.58911 0  0.206479 0.702638 0  0.679608 0.155818 0  0.62682 0.259978 0  0.690538 0.264164 0  0.448938 0.956308 0  0.808154 0.328403 0  0.379583 0.91913 0  0.308083 0.297769 0  0.312358 0.730249 0  0.563101 0.278576 0  0.435597 0.746198 0  0.385475 0.225229 0  0.572248 0.518034 0  0.357864 0.35422 0  0.497647 0.641694 0  0.458101 0.655768 0  0.360474 0.310727 0  0.467038 0.620139 0  0.47798 0.659909 0  0.41102 0.628072 0  0.48324 0.609015 0  0.427544 0.617941 0  0.388633 0.328253 0  0.405336 0.599404 0  0.408351 0.565178 0  0.42395 0.600985 0  0.431562 0.576523 0  0.424905 0.6551979999999999 0  0.398064 0.58782 0  0.427739 0.557934 0  0.5192909999999999 0.303443 0  0.53142 0.320293 0  0.5449000000000001 0.323642 0  0.537166 0.323513 0  0.153974 0.920841 0  0.9181859999999999 0.67343 0  0.759946 0.820588 0  0.5375259999999999 0.783091 0  0.816532 0.545843 0  0.813991 0.178083 0  0.836774 0.702023 0  0.149815 0.318856 0  0.662287 0.923338 0  0.680146 0.791192 0  0.708961 0.663172 0  0.9372779999999999 0.287318 0  0.574622 0.6881660000000001 0  0.5894740000000001 0.076262 0  0.502822 0.926683 0  0.222269 0.811068 0  0.380457 0.164786 0  0.15321 0.684154 0  0.458063 0.051413 0  0.161702 0.056026 0  0.199351 0.198818 0  0.298946 0.09553200000000001 0  0.902465 0.795949 0  0.121139 0.791477 0  0.906269 0.112287 0  0.056109 0.822332 0  0.512172 0.13237 0  0.940964 0.741805 0  0.888887 0.408777 0  0.354543 0.825964 0  0.808736 0.068638 0  0.068507 0.394071 0  0.719105 0.563843 0  0.247287 0.149664 0  0.293062 0.237128 0  0.240524 0.434997 0  0.141255 0.623289 0  0.945202 0.160621 0  0.502914 0.247629 0  0.144669 0.480811 0  0.665025 0.060817 0  0.728047 0.224344 0  0.861995 0.313312 0  0.200068 0.534235 0  0.253262 0.965623 0  0.893804 0.49307 0  0.604391 0.572456 0  0.947088 0.345347 0  0.439372 0.227307 0  0.629847 0.159823 0  0.273405 0.880181 0  0.302744 0.776823 0  0.781502 0.295365 0  0.275342 0.349602 0  0.7283849999999999 0.472798 0  0.229136 0.246478 0  0.807794 0.480346 0  0.709476 0.112786 0  0.275506 0.694991 0  0.771674 0.394419 0  0.449715 0.861802 0  0.419159 0.799696 0  0.674851 0.503139 0  0.280443 0.61016 0  0.572443 0.192538 0  0.393113 0.87525 0  0.405555 0.948428 0  0.330942 0.934103 0  0.540509 0.597101 0  0.312763 0.6689310000000001 0  0.254368 0.540179 0  0.595265 0.25915 0  0.606679 0.234099 0  0.657131 0.279138 0  0.722458 0.279478 0  0.333 0.308056 0  0.351529 0.246142 0  0.455714 0.7257940000000001 0  0.585239 0.295143 0  0.340062 0.72492 0  0.545593 0.293773 0  0.555449 0.545426 0  0.414311 0.737314 0  0.590854 0.502323 0  0.350507 0.368444 0  0.484423 0.625665 0  0.483899 0.674542 0  0.378137 0.317274 0  0.446416 0.646404 0  0.373532 0.347654 0  0.446876 0.619769 0  0.466106 0.666068 0  0.437545 0.609254 0  0.434988 0.565726 0  0.41462 0.656829 0  0.418803 0.556961 0  0.398425 0.327446 0  0.517803 0.310421 0  0.549516 0.322918 0  0.57701 0.842889 0  0.8291269999999999 0.773906 0  0.643235 0.684732 0  0.134281 0.207734 0  0.865997 0.055966 0  0.680959 0.723345 0  0.165229 0.8415550000000001 0  0.54558 0.959672 0  0.783726 0.656439 0  0.913315 0.595533 0  0.699439 0.860667 0  0.785839 0.125076 0  0.551673 0.037713 0  0.9200970000000001 0.223214 0  0.206406 0.299726 0  0.087064 0.596401 0  0.935644 0.394252 0  0.964557 0.252582 0  0.230124 0.928346 0  0.120579 0.271764 0  0.8572149999999999 0.524082 0  0.7670979999999999 0.5551469999999999 0  0.936094 0.507131 0  0.804064 0.59585 0  0.700565 0.608273 0  0.429773 0.174231 0  0.117746 0.727333 0  0.5389620000000001 0.730231 0  0.862761 0.359173 0  0.821444 0.284046 0  0.193552 0.35818 0  0.234923 0.505555 0  0.193209 0.421217 0  0.220144 0.755896 0  0.594015 0.131642 0  0.283813 0.195855 0  0.517519 0.213961 0  0.553509 0.639116 0  0.280391 0.378018 0  0.852183 0.436817 0  0.746983 0.197173 0  0.821806 0.221318 0  0.449853 0.828453 0  0.883758 0.453926 0  0.183484 0.589542 0  0.348384 0.129314 0  0.255254 0.838525 0  0.504849 0.798516 0  0.320344 0.863432 0  0.611669 0.525425 0  0.265864 0.804962 0  0.72056 0.521442 0  0.613372 0.6101220000000001 0  0.481262 0.881068 0  0.655778 0.191988 0  0.701921 0.196918 0  0.5658260000000001 0.5731810000000001 0  0.46914 0.240927 0  0.343219 0.173284 0  0.888786 0.278502 0  0.244113 0.6750930000000001 0  0.739546 0.417914 0  0.784023 0.355942 0  0.326805 0.265549 0  0.248616 0.6
[...]
<PointData  Scalars="u"> 
<DataArray  type="Float64"  Name="u"  format="ascii">1.3341261303943575e-01  1.6148103181639692e-01  1.9035393178430621e-01  2.6697685677407618e-01  2.3277316702568018e-01  3.2685214424793485e-01  2.9247553082419159e-01  -5.5116565511471633e-04  -5.5228984223705927e-06  -2.0991318390328106e-06  2.5997388406010617e-07  -3.4854735462438580e-07  -3.5410982219508210e-05  1.7056141724009432e-03  2.2654009689791819e-03  -6.2565304293311246e-05  3.1821598539028575e-04  4.9841471588370169e-03  3.8949404749151323e-03  1.6623207983368219e-03  -1.9862534916412610e-03  -1.0690796968827374e-03  7.5492495616419242e-02  6.4154642685160068e-01  6.7619202476571427e-01  5.9414008832966458e-01  5.3453504858901757e-01  5.3925256259980436e-01  5.4723249834657550e-01  3.8655257190854148e-01  7.5246346500913275e-01  5.2237546683272873e-01  2.7080923292969861e-01  1.1399910240613566e-01  -2.5483313554098056e-02  -3.7473744753809003e-05  2.1547875188568814e-04  -1.1954150142324627e-03  -1.7913821776972476e-05  -2.9496691386081349e-06  1.2161496105224175e-07  4.5979625337777742e-07  -1.0052124036826699e-07  2.2934743928976212e-08  4.3073477313694844e-07  6.7738819969931222e-04  4.5400890659685704e-04  9.0779397658898489e-02  1.9728589388801537e-01  3.4537443211491015e-01  1.0597299265738523e-01  -3.9532811697771300e-02  -1.2559569373609983e-02  1.1336064969743269e-01  1.5773031867258894e-01  4.8225949487564207e-01  8.5670787904107326e-01  6.3015906776541020e-01  8.6872853538447237e-01  7.7958820068566448e-01  3.1775232372402346e-01  1.2307587935389329e-01  1.4030255871596273e-01  3.9270954773175343e-01  5.0580603830916504e-01  8.8772214979071551e-01  9.1713070460653690e-01  9.4938331995877978e-01  9.6614367326730655e-01  9.4971391620388668e-01  9.3646557990338652e-01  9.6134439464004651e-01  9.7154262219838916e-01  9.0378228446392450e-01  6.5417143982706494e-01  2.5448156034154390e-01  1.6572787092809280e-01  1.0000000000000000e+00  1.0000000000000000e+00  -2.7480112626493447e-01  -4.1202019028445480e-01  1.3923667341013823e-01  1.2858585319718258e-01  1.2775766288872650e-01  1.4496450521444415e-01  1.6950175276013943e-01  1.7439148854469430e-01  1.8054209472138119e-01  2.7286911753712151e-01  3.3645997109000902e-01  2.4608998736964227e-01  1.2202357885502707e-01  6.6145278577879893e-03  -2.0859559283771190e-04  -3.7343606110236421e-05  -2.5218076086730994e-07  4.4222777393792713e-07  7.9799932655290325e-06  -4.3337411628212637e-05  -5.6063305892233635e-04  7.3536723272739140e-04  2.9899828664096077e-03  1.2821248201642468e-04  2.5164827239708376e-01  5.0257676647896032e-01  4.7055773671942991e-01  5.4854651482773042e-01  5.8071738013261653e-01  1.6878397829744357e-01  8.2471996284846525e-04  -5.3894771889693178e-03  -1.5467595981050809e-03  3.9740907220109671e-04  -9.5960821914994257e-07  -1.9803077453561319e-05  6.4153017056765516e-02  -1.0528850693790368e-02  4.0087059008703269e-02  6.9540082296277128e-01  6.2920362388081874e-01  8.4298591168831830e-02  1.9324095825152296e-01  7.4520743398998845e-01  9.0660791907991567e-01  9.5421956825945753e-01  9.4162455487412056e-01  8.3512799692139239e-01  4.0746758133769889e-01  2.2468699513735804e-01  2.1483291755624337e-01  1.9937554179033437e-01  1.0000000000000000e+00  1.0000000000000000e+00  1.0000000000000000e+00  1.0000000000000000e+00  1.0000000000000000e+00  1.0000000000000000e+00  1.0000000000000000e+00  1.0000000000000000e+00  1.0000000000000000e+00  9.8578062243513831e-01  1.0016445969008383e+00  9.9969448504626846e-01  9.9602543176576530e-01  8.7444971385193415e-01  6.1556878042623275e-01  7.5287051159440488e-01  2.4367796108553436e-01  -1.9564743325371112e-01  7.7418710913628369e-02  7.9716348878905852e-01  9.9692752220325931e-01  9.9959744627974667e-01  9.9673625283361622e-01  1.0001306063347357e+00  1.0007140499165277e+00  1.0226027253142032e+00  4.6902573502754014e-01  1.0099145661153577e+00  1.0025049068366592e+00  9.8729002226809526e-01  9.7179190734036558e-01  1.6217791772799114e-01  1.0099095861199130e+00  1.0042960374361054e+00  9.9566075296790835e-01  1.0480068702594554e+00  7.0293267693585543e-02  1.0000216958941213e+00  9.9992702027081060e-01  9.9892417355392349e-01  1.0003016887709755e+00  9.9921125768353969e-01  1.0001650128531689e+00  9.9875775862610661e-01  8.5752682571272165e-01  9.9624604072067469e-01  1.0049258242295587e+00  8.5415844738818347e-01  9.5040898491934422e-01  1.0024749334129819e+00  9.9737107859862806e-01  -1.5369310902988292e-02  7.6198850928099682e-01  3.2549432488338631e-01  -1.1485454548219860e-03  7.3397154451960278e-01  -6.4730992060893541e-06  2.4974147781273343e-01  1.0170262891858033e+00  1.0000264958750176e+00  9.9996286353404851e-01  9.9999235732412439e-01  1.0004162325044301e+00  9.9932388287505003e-01  1.0043722081028594e+00  9.9894897074094946e-01  1.0062469400191021e+00  9.9992809678060524e-01  1.0237444360449892e+00  9.9910361179561047e-01  1.0001920753039473e+00  1.0124649997972606e+00  9.9927374186903495e-01  9.9676302155760932e-01  1.0038198152343971e+00  1.0010110833424195e+00  1.0000020222167127e+00  1.0002786644817787e+00  1.0001438409287311e+00  9.9962195637355267e-01  9.9964499291305098e-01  6.4242101344786895e-01  9.9944334314243355e-01  9.9857339494363428e-01  -1.5675879298669593e-02  4.1360093825007782e-01  -5.8868491429430825e-04  8.9706759810907777e-01  9.9187714511833536e-01  2.6044245657529799e-02  5.4556714452441657e-01  2.1983623370727819e-05  5.3406179691574129e-01  2.6135015708729242e-01  1.8171854351119091e-01  4.0457639869224829e-03  1.1183124514967160e-05  -1.2002417787571737e-03  2.7552367414028735e-06  -1.6377181748420952e-06  -4.9906523178701395e-08  3.1377743120853147e-01  2.4177721859588441e-01  1.6588300184747626e-01  1.0002501056581983e+00  9.9999939013885364e-01  1.0024410515120761e+00  1.0000037415699210e+00  1.0035973465756458e+00  9.9979539742938184e-01  9.9992607410047740e-01  1.0001241939075165e+00  1.0065260375648653e+00  1.5739186755549603e-01  1.0053322192255072e+00  9.9550611503040276e-01  9.9977795272349468e-01  9.9987257248248529e-01  1.0156553869961011e+00  1.0006705220364107e+00  9.9994093972280873e-01  1.0038329930979035e+00  9.9783327970808344e-01  1.0007204507385890e+00  9.9969417457765275e-01  1.0087919120247386e+00  -1.0759798216116841e-02  1.0046020007464800e+00  1.0000255517814589e+00  6.0832002287849496e-01  1.0004446751132110e+00  1.0012965579311570e+00  1.0000639923367187e+00  1.0237811125101521e+00  8.6618377369035360e-01  1.0002270850022204e+00  1.0012996781604058e+00  5.5356559068963440e-01  9.9865526722869824e-01  9.9973121660607989e-01  1.0007608331766340e+00  9.9930926532034681e-01  9.9976909220668408e-01  1.0002181251024493e+00  1.0033652389525665e+00  8.6940995356751805e-01  1.0071284416727613e+00  1.0011528296650380e+00  1.0047737477631933e+00  1.0125030737524277e+00  9.3853376384123854e-01  1.2658734252016229e-03  9.7795615542283953e-01  5.6459830977657743e-01  -4.1180746171454695e-03  4.2349762142052350e-01  8.5351759497308466e-01  4.1200906746502404e-02  5.5641678200375699e-01  1.6832670519609333e-01  -3.9442057132075742e-05  -2.2463319073650193e-03  7.8015511954220520e-06  2.8249282585872029e-02  1.9573926654983636e-05  2.9364578539205325e-02  -3.5911238994805076e-06  -1.5112832492345127e-07  6.2715891634338605e-01  1.8977595209341949e-01  2.6664405096256882e-01  1.7619101635505191e-01  1.0226018766384177e+00  1.0000002985666079e+00  9.9998413518494722e-01  9.9985551224332181e-01  1.0006986525436059e+00  1.0002516958664331e+00  1.0000027724531602e+00  9.9683594507081319e-01  1.0000506481473506e+00  1.0001266877869490e+00  9.9999824690747241e-01  1.0000554767189558e+00  1.0002011707852645e+00  9.9945689445735164e-01  9.9985034282175456e-01  9.9846047813816408e-01  9.9469890709309450e-01  9.9995716777799182e-01  1.0022809749965795e+00  9.7832362448286658e-01  9.9652700685858897e-01  1.0134510827354160e+00  1.0000027823147333e+00  1.0038532501329749e+00  9.9975292543915883e-01  9.9375563673155876e-01  9.9303416712608883e-01  1.0000001853391249e+00  9.9999870906135935e-01  9.9895836351417311e-01  1.0000644140230810e+00  1.0239932006697816e+00  9.9965442608166977e-01  1.0044254415078668e+00  9.9779361937031452e-01  1.3412630592396821e-02  1.0076204130884567e+00  1.0000599418578666e+00  1.0009904300074557e+00  -1.0341245330278385e-01  1.0003772328577090e+00  9.9940358993126388e-01  9.9966353544479813e-01  1.2975657888243097e-01  9.9736635364605231e-01  1.0001171123108079e+00  9.9912471194772423e-01  9.9999935704632337e-01  9.9913316579893052e-01  9.9848072020221657e-01  9.9416798279969720e-01  9.9989947399432366e-01  9.9983352707524897e-01  7.1487217077085186e-01  9.9951864683934222e-01  9.9675446572301440e-01  1.0001020224995609e+00  9.9989111079332593e-01  1.0092704035448707e+00  9.9990610177581429e-01  9.9796878396530431e-01  9.9977180910579666e-01  1.0027906527830617e+00  1.4005257401492793e-01  1.0014214461367696e+00  1.0026918796100217e+00  9.9916538012815936e-01  9.9759985620128611e-01  1.0095726737805182e+00  4.3979754688086542e-01  -2.0420718029059336e-02  9.9971147219081591e-01  1.0003064935555208e+00  1.0007619344528149e+00  9.9978615469986554e-01  3.4470117699040603e-01  9.6905287824575714e-01  9.6895875056879721e-01  9.9935075570024601e-01  6.0765176756930517e-01  9.9842802645204076e-01  9.9110661268162659e-01  8.9411883251670254e-01  8.9318459242897996e-01  5.3094781714556176e-04  7.5067500080709193e-01  8.3184665115059908e-01  -5.3796635239595288e-04  4.6932085769372528e-01  -7.4882418388599894e-05  2.7102294944241662e-01  4.5684493618053940e-01  1.1576077360081113e-01  1.2613108322140772e-06  -1.8706209980081548e-03  -1.2301418533295350e-06  -1.3640512058773204e-05  2.9386590622798847e-01  3.3716188111557444e-01  1.0004968258879710e+00  9.9997805945599261e-01  1.0001078122912881e+00  9.9468585346180616e-01  1.0010493073171904e+00  9.9999008594538707e-01  1.0061303698447801e+00  1.0003167396500787e+00  9.9999727263600335e-01  1.0000054687557312e+00  9.9985795776725894e-01  9.9977037092355592e-01  9.9854058694664749e-01  9.9998565348719326e-01  1.0030482156417615e+00  1.0121745558775574e+00  1.0000002882015362e+00  1.0001001873993711e+00  1.0060060773983159e+00  1.0005349365389173e+00  9.9960456247404039e-01  1.0002404480423126e+00  1.0000237247427430e+00  1.0000994819249700e+00  9.9980543343385586e-01  1.0043039946883945e+00  9.9637563675932117e-01  1.0004927404774397e+00  9.9998159105882811e-01  9.9962279174884427e-01  1.0387345098321132e+00  -1.8723202265310680e-03  4.2611188657041327e-01  1.0015981972950196e+00  1.0043853170925188e+00  1.0058002969841862e+00  9.9937478925170009e-01  9.9962224503741792e-01  2.1423575323243754e-01  1.0000114961892395e+00  9.9954112572552500e-01  9.9999865242975416e-01  1.0003769045112230e+00  1.0000510776648852e+00  9.3424914921253788e-01  9.8980160980489051e-01  9.9397776496871482e-01  1.0000094205160497e+00  1.0022057212947719e+00  1.0057676632949837e+00  9.9883506643600040e-01  1.0003949582266218e+00  1.0001772089387733e+00  9.9746161512321618e-01  9.9750155073176483e-01  1.0016298060322777e+00  1.0021769724530898e+00  9.9976477301544353e-01  9.9290210521365907e-01  1.0003825697117359e+00  1.0094222573205320e+00  9.9166809274873846e-01  1.0001281496561027e+00  9.3777572257899011e-01  9.2194983875347869e-01  9.9969530684881791e-01  9.9988391609542393e-01  7.0985233784440172e-01  9.9993769153700640e-01  1.0015096055600499e+00  9.9951170303600323e-01  5.1426867950795846e-02  1.0004235760076146e+00  9.9995075492395302e-01  9.9896083437422778e-01  1.0022013197098028e+00  4.7540906117107790e-01  9.9923102816847242e-01  9.9948594280320913e-01  5.0228944773529334e-04  -2.4732764145814587e-02  9.9985971796169859e-01  1.0003432473047711e+00  1.0047032876518203e+00  9.9256759927876048e-01  1.0229227756282280e+00  1.0186235138184083e+00  9.6744357640288003e-01  1.0026028091707546e+00  8.0145837118282404e-01  9.9907904224333510e-01  1.0009504565750906e+00  9.7308184283037669e-01  9.9999358436072761e-01  1.0000452293790552e+00  9.5894325820382853e-01  1.0042998680345221e+00  1.0009307167924042e+00  1.0098423730040635e+00  9.3897922893500607e-01  9.9875906096826428e-01  9.8550042606730826e-01  9.9979380582571009e-01  8.1696500457192534e-01  9.3403616911892096e-01  1.6368130003330039e-01  7.0351746125065540e-01  7.4644587072878066e-01  9.6703809540057095e-01  -1.8738445810823817e-05  8.5389795850101868e-01  -4.1401779537854635e-05  2.4133265895946851e-01  1.0000093983899805e+00  1.0000939230851560e+00  1.0002289711680470e+00  1.0000035093911555e+00  1.0001667505366891e+00  1.0051193567810037e+00  9.9987631813810640e-01  9.9986317112177692e-01  1.0001150186002628e+00  9.9703210084689109e-01  9.9984173395139520e-01  1.0001643310205421e+00  9.9980118455383660e-01  1.0130761593870306e+00  9.9666852451091492e-01  9.9991191685061531e-01  1.0018602261015845e+00  1.0048557630358672e+00  9.9971325382870202e-01  9.9948379380969787e-01  9.9998444281989118e-01  9.9864223491958326e-01  9.9556978105121752e-01  9.9817320034038037e-01  2.0044733039850360e-03  1.0000053465704748e+00  1.0001490735318361e+00  9.9926955404984952e-01  1.0002564749046885e+00  1.0000141905925242e+00  9.9966276493568618e-01  -4.1037943198704414e-02  1.0001599007190078e+00  9.5755090848832514e-01  9.9969321637555908e-01  9.9996281471880244e-01  1.0000669005936937e+00  9.9683102638395960e-01  1.0006281935129715e+00  1.0007101214790481e+00  9.9938984900399064e-01  1.0017688899326231e+00  1.0002081156939620e+00  9.9867188137075447e-01  1.0007259039330527e+00  9.9778011825376156e-01  1.0007501778204022e+00  9.9971353076432878e-01  1.0001164909364888e+00  9.9183701697525350e-01  1.0077892340034946e+00  1.0001386981617426e+00  1.0075037919728203e+00  1.0003368381014242e+00  1.7979070731328065e-01  9.9988754120775825e-01  1.0012859781285584e+00  9.7058090888571746e-01  1.0052464948713138e+00  1.0007925620764044e+00  1.0000218559394103e+00  1.0016902970605517e+00  1.0006961457871937e+00  2.0180918083556192e-02  9.9950033780004688e-01  9.9999812388491605e-01  9.9971628441400917e-01  9.3729146339368263e-01  9.0830704935531281e-01  9.9995630904410071e-01  9.9906953027056411e-01  1.0005736902377775e+00  7.2575245063327453e-03  8.3358805582820106e-01  1.0005854385134363e+00  9.9485108567547198e-01  1.0001735176157551e+00  9.9572858189994218e-01  1.0002700417274266e+00  9.9287058546643570e-01  6.5985372997358971e-01  7.4872622789286336e-01  1.0111434261670611e+00  9.9966856634980872e-01  1.0008439014691135e+00  8.7905715675108387e-01  1.0062436306253326e+00  1.0005946121777927e+00  1.0011552471276137e+00  8.7988445217301958e-01  9.9313394998444027e-01  7.6844542976823760e-01  9.4631593099727140e-01  5.4724717531075029e-01  4.1918626033714923e-01  7.9376012700941634e-01  9.9493241287018708e-01  8.6165500396327543e-01  1.0000017106252106e+00  9.8949451444109848e-01  8.9492870288320270e-01  1.0000391761190786e+00  7.6157571291810011e-01  3.9238213841659042e-01  5.6235287150113256e-01  3.7420006540898715e-01  1.0095945582881931e+00  9.9993364746857005e-01  1.0001080559108741e+00  1.0003908265453922e+00  1.0002969962028647e+00  5.7190420671359484e-04  1.0000204449551993e+00  9.9847897629106097e-01  9.9940346347516296e-01  9.9994428903054144e-01  1.0002002161037438e+00  1.0002257192239781e+00  1.0001018001996473e+00  9.9955874964995173e-01  -1.2700864298459682e-02  9.9974988644311547e-01  1.0034362896588560e+00  9.9809379767732542e-01  9.9969774609191331e-01  1.0009166738745250e+00  1.0003404895045145e+00  1.0001706694289612e+00  1.0022708220075454e+00  9.9182309501425236e-01  9.9992319444783351e-01  1.0002556546315358e+00  1.0200141883858904e+00  1.0013372262262252e+00  9.6953581913394749e-01  1.0002718117740625e+00  9.9955556565018833e-01  9.5366153128483078e-01  9.9990375713818203e-01  9.9979312394953301e-01  9.9869801618144161e-01  1.0010179117683118e+00  1.2005069067583657e-03  9.9722505156375241e-01  1.0001713433038821e+00  9.9942001928296653e-01  9.5985455938531494e-01  9.9846845171021104e-01  9.9955498849913127e-01  1.0003817616722317e+00  9.5818294103535318e-01  9.9922709008192534e-01  9.9855937593191679e-01  1.0000593625427148e+00  9.9996008244141377e-01  9.9978959697911229e-01  9.9980812463446778e-01  1.0001091321371489e+00  1.0078139942041009e+00  1.0004467796398289e+00  9.9185407684409943e-01  1.0015063294389501e+00  1.0020542474914773e+00  7.2521936347327487e-01  9.2760412093115185e-01  9.9192183263502987e-01  5.7053918340598075e-01  1.6886755089385552e-01  9.5157206779820491e-01  1.0005619398873606e+00  9.5571801314150617e-01  6.6247041647674509e-01  1.0017715753871861e+00  9.9985530748035245e-01  6.4700970114775225e-01  7.1840350032875189e-01  1.0006226410254249e+00  1.0001607055847095e+00  9.9998620090021040e-01  6.5564870198408898e-01  9.3268159464186340e-01  9.9020974621229085e-01  9.9096511576790602e-01  7.7982100297559209e-01  9.8250900657630136e-01  6.4927640184658753e-01  7.2424945228484938e-01  5.7375832290692963e-01  1.0003229392937636e+00  1.0004872337729327e+00  1.0001327135593692e+00  9.9992680002087286e-01  9.9931498855571321e-01  9.9952534465186949e-01  1.0204914189935608e+00  1.0044731141739316e+00  1.0003173852143628e+00  1.0008839172281538e+00  9.9973856701406361e-01  9.9996833997621493e-01  1.0001175694937390e+00  9.9961970002807188e-01  1.0097852771896012e+00  1.0052766733909857e+00  9.7886355964092808e-01  1.0003207695387886e+00  1.0011433507205170e+00  1.0087213352797393e+00  1.0003173993091601e+00  9.9229593490633183e-01  9.9993333552940178e-01  9.4164334976203590e-01  9.0465572827779583e-01  9.9335612639102278e-01  1.0003577437150015e+00  9.8935411008975604e-01  9.6919353870154945e-01  9.0758219891223957e-01  8.9065454013130507e-01  7.2721286354986803e-01  5.1911953663178290e-01  9.5446522122735111e-01  6.3729912591977955e-01  9.0354955254298863e-01  5.8654081627794219e-01  1.0001640619953753e+00  1.0106404257881785e+00  1.0043216532963057e+00  1.0001851499068497e+00  1.0000374047247196e+00  9.5382953532655146e-01  9.9992628637161474e-01  9.5365540379665792e-01  9.8353460935459280e-01  1.0007440354485935e+00  8.8230163162251241e-01  6.7846687751653501e-01  1.0115234616566631e+00  9.8330813638932690e-01  4.0115136676783086e-01  4.3803187030558610e-01  4.2006427803401636e-01  9.4375589318110475e-01  9.8502128666766275e-01  1.3931693350141552e-01  1.3183103154653975e-01  1.2763553495962093e-01  1.4909892110755599e-01  1.4263470056130112e-01  1.8940882722933763e-01  1.6560847733028836e-01  1.8621319116645368e-01  1.3045086285024585e-01  2.5946833580301720e-01  2.6388169068070061e-01  2.1263923863193807e-01  2.6145916877856173e-01  2.4021626698578702e-01  2.7207641455234077e-01  2.8378992653257662e-01  1.7203737074137354e-01  3.1626128817970632e-02  -1.5519978327935079e-04  -6.6075845205257192e-04  -8.5258845027597202e-05  -1.4486866684636445e-05  -3.4684869383213454e-06  -6.7303692007244879e-07  1.7673401361765748e-07  -1.3798154739894423e-07  -1.7329165711560228e-07  3.4795768273608331e-06  3.1429005398227921e-06  -7.9086994913385287e-05  -5.8610990068644179e-04  1.4876717975711381e-03  1.3308572900455667e-03  2.5802331760508581e-04  1.9591331062934492e-04  -3.6420495994597625e-04  -8.6097229042321098e-04  8.4466505272805109e-03  5.5559804270471124e-03  2.0393485806190735e-03  4.1303860696135619e-04  -4.4472505816722400e-04  -5.9919307580548371e-03  5.3552406395001653e-03  9.0460881914269195e-02  3.6459158489053650e-01  5.8278349232717042e-01  6.3958123508775488e-01  5.9383649335696098e-01  4.9516946954586799e-01  4.8818494797259943e-01  5.1102802616392029e-01  5.9890177635123620e-01  7.3100042951928090e-01  4.8086789723192175e-01  4.2528855894178391e-01  6.6882000371229455e-01  5.1085437100592779e-01  3.9390055770143040e-01  2.2754475334440197e-01  1.7657368708321361e-01  5.1537806363937989e-03  -5.7512205051426860e-03  2.7688745510867771e-04  -2.8439540318966650e-04  -1.3556781159067685e-03  -3.1741095426556761e-03  -4.2763047582880633e-03