<?xml version="1.0"?>
<VTKFile type="UnstructuredGrid"  version="0.1"  >
<UnstructuredGrid>
<Piece  NumberOfPoints="2868" NumberOfCells="5400">
<Points>
<DataArray  type="Float64"  NumberOfComponents="3"  format="ascii">0.534923 0.326073 0  0.510642 0.314196 0  0.466125 0.293082 0  0.436448 0.281205 0  0.409468 0.275927 0  0.368998 0.270648 0  0.35281 0.275927 0  0.381139 0.302319 0  0.405421 0.326073 0  0.410817 0.33531 0  0.408119 0.349826 0  0.400025 0.357744 0  0.375743 0.368301 0  0.329878 0.392055 0  0.297502 0.432963 0  0.282663 0.476511 0  0.285361 0.524018 0  0.298851 0.572845 0  0.317737 0.6045160000000001 0  0.337972 0.6361869999999999 0  0.360904 0.674457 0  0.368998 0.69953 0  0.359555 0.7219640000000001 0  0.360904 0.757594 0  0.370347 0.766831 0  0.381139 0.762872 0  0.390582 0.741758 0  0.404072 0.720644 0  0.424307 0.707448 0  0.447239 0.702169 0  0.480964 0.704808 0  0.479615 0.6889729999999999 0  0.468823 0.675776 0  0.447239 0.6691780000000001 0  0.428354 0.6691780000000001 0  0.410817 0.6639 0  0.404072 0.653343 0  0.395978 0.628269 0  0.387884 0.59132 0  0.389233 0.576804 0  0.397327 0.557009 0  0.410817 0.547772 0  0.424307 0.546452 0  0.437797 0.55305 0  0.44589 0.5662469999999999 0  0.441843 0.582082 0  0.439145 0.5979179999999999 0  0.449937 0.609795 0  0.468823 0.603196 0  0.479615 0.59 0  0.489058 0.570205 0  0.494454 0.546452 0  0.505246 0.522699 0  0.522783 0.509502 0  0.55246 0.494986 0  0.586185 0.484429 0  0.615863 0.48047 0  0.64554 0.473872 0  0.6671240000000001 0.461995 0  0.683312 0.451438 0  0.696802 0.435603 0  0.703547 0.417128 0  0.7116400000000001 0.393374 0  0.7183850000000001 0.37226 0  0.7251300000000001 0.364342 0  0.739969 0.353785 0  0.7453650000000001 0.344548 0  0.7453650000000001 0.327393 0  0.737271 0.318155 0  0.7183850000000001 0.316835 0  0.7008490000000001 0.319475 0  0.677916 0.318155 0  0.650936 0.316835 0  0.610467 0.318155 0  0.57944 0.324753 0  0.559205 0.328712 0  0.5389699999999999 0.326073 0  1 1 0  1 0 0  0 0 0  0 1 0  0.532238 0.32476 0  0.528748 0.323052 0  0.52421 0.320833 0  0.518311 0.317947 0  0.503447 0.310783 0  0.494093 0.306347 0  0.481933 0.30058 0  0.452151 0.28749 0  0.392327 0.273691 0  0.379141 0.271971 0  0.360474 0.283066 0  0.369797 0.291752 0  0.391424 0.31238 0  0.399335 0.32012 0  0.40958 0.341964 0  0.393939 0.36039 0  0.386028 0.36383 0  0.364248 0.374254 0  0.349304 0.381994 0  0.315801 0.409841 0  0.292986 0.551616 0  0.350934 0.657818 0  0.360127 0.737055 0  0.360566 0.748664 0  0.385245 0.753692 0  0.396447 0.732578 0  0.466301 0.703661 0  0.459439 0.672908 0  0.418442 0.666195 0  0.400553 0.642441 0  0.39255 0.612619 0  0.389913 0.60058 0  0.392752 0.568197 0  0.444131 0.573132 0  0.458149 0.606926 0  0.5005540000000001 0.533026 0  0.571522 0.489019 0  0.632637 0.476741 0  0.689177 0.444553 0  0.708121 0.403702 0  0.715453 0.38144 0  0.732406 0.359166 0  0.7453650000000001 0.337089 0  0.72906 0.317581 0  0.629879 0.317522 0  0.59293 0.321884 0  0.568003 0.326991 0  0.55202 0.327775 0  0.546493 0.327054 0  0.542241 0.326499 0  1 0.9 0  1 0.8 0  1 0.7 0  1 0.6 0  1 0.5 0  1 0.4 0  1 0.3 0  1 0.2 0  1 0.1 0  0.9 0 0  0.8 0 0  0.7 0 0  0.6 0 0  0.5 0 0  0.4 0 0  0.3 0 0  0.2 0 0  0.1 0 0  0.1 1 0  0.2 1 0  0.3 1 0  0.4 1 0  0.5 1 0  0.6 1 0  0.7 1 0  0.8 1 0  0.9 1 0  0 0.1 0  0 0.2 0  0 0.3 0  0 0.4 0  0 0.5 0  0 0.6 0  0 0.7 0  0 0.8 0  0 0.9 0  0.535686 0.5031910000000001 0  0.753987 0.733359 0  0.167145 0.741436 0  0.173378 0.257204 0  0.733497 0.159862 0  0.554096 0.15788 0  0.849187 0.479053 0  0.488793 0.838452 0  0.138507 0.5592 0  0.30686 0.154944 0  0.348904 0.890523 0  0.058006 0.065099 0  0.06984899999999999 0.937917 0  0.93633 0.939704 0  0.934625 0.053613 0  0.343397 0.333452 0  0.473272 0.639943 0  0.433266 0.638072 0  0.415174 0.58269 0  0.533435 0.545042 0  0.390848 0.340652 0  0.53655 0.320242 0  0.127966 0.393775 0  0.83861 0.850455 0  0.635242 0.8551299999999999 0  0.852158 0.633441 0  0.653427 0.626848 0  0.861226 0.24292 0  0.166128 0.12976 0  0.216875 0.8698709999999999 0  0.458305 0.11179 0  0.84446 0.101633 0  0.202024 0.642528 0  0.644825 0.115855 0  0.671342 0.218358 0  0.251354 0.286186 0  0.262388 0.75153 0  0.063044 0.751571 0  0.068189 0.242962 0  0.435781 0.9053949999999999 0  0.934144 0.451133 0  0.568393 0.237622 0  0.814984 0.395506 0  0.752951 0.517227 0  0.456254 0.780699 0  0.073352 0.531116 0  0.337731 0.206071 0  0.363213 0.960371 0  0.330742 0.363592 0  0.516613 0.55705 0  0.369057 0.332992 0  0.500926 0.617309 0  0.498004 0.665534 0  0.412142 0.61178 0  0.454233 0.6366039999999999 0  0.422782 0.567496 0  0.541193 0.5214800000000001 0  0.439761 0.65557 0  0.5163 0.533672 0  0.414775 0.64562 0  0.40073 0.576135 0  0.430362 0.5880339999999999 0  0.385432 0.351492 0  0.400298 0.335397 0  0.398325 0.348194 0  0.528702 0.314885 0  0.540814 0.322334 0  0.534477 0.322953 0  0.619095 0.743583 0  0.885162 0.737972 0  0.08076 0.668849 0  0.90734 0.36634 0  0.09468699999999999 0.868937 0  0.759838 0.912152 0  0.901518 0.540898 0  0.747285 0.607479 0  0.229182 0.071641 0  0.06915399999999999 0.450091 0  0.244775 0.203309 0  0.076534 0.331755 0  0.897847 0.167826 0  0.578909 0.911415 0  0.07713299999999999 0.146341 0  0.477215 0.203448 0  0.922631 0.869341 0  0.517415 0.074785 0  0.297026 0.827793 0  0.7832710000000001 0.246505 0  0.74519 0.061079 0  0.36033 0.069068 0  0.210313 0.475228 0  0.859426 0.928758 0  0.5745479999999999 0.609182 0  0.243069 0.383398 0  0.283099 0.934598 0  0.417416 0.843141 0  0.643942 0.553164 0  0.112687 0.079336 0  0.281357 0.658386 0  0.765043 0.436177 0  0.611361 0.198486 0  0.234496 0.58911 0  0.206479 0.702638 0  0.679608 0.155818 0  0.62682 0.259978 0  0.690538 0.264164 0  0.448938 0.956308 0  0.808154 0.328403 0  0.379583 0.91913 0  0.308083 0.297769 0  0.312358 0.730249 0  0.563101 0.278576 0  0.435597 0.746198 0  0.385475 0.225229 0  0.572248 0.518034 0  0.357864 0.35422 0  0.497647 0.641694 0  0.458101 0.655768 0  0.360474 0.310727 0  0.467038 0.620139 0  0.47798 0.659909 0  0.41102 0.628072 0  0.48324 0.609015 0  0.427544 0.617941 0  0.388633 0.328253 0  0.405336 0.599404 0  0.408351 0.565178 0  0.42395 0.600985 0  0.431562 0.576523 0  0.424905 0.6551979999999999 0  0.398064 0.58782 0  0.427739 0.557934 0  0.5192909999999999 0.303443 0  0.53142 0.320293 0  0.5449000000000001 0.323642 0  0.537166 0.323513 0  0.153974 0.920841 0  0.9181859999999999 0.67343 0  0.759946 0.820588 0  0.5375259999999999 0.783091 0  0.816532 0.545843 0  0.813991 0.178083 0  0.836774 0.702023 0  0.149815 0.318856 0  0.662287 0.923338 0  0.680146 0.791192 0  0.708961 0.663172 0  0.9372779999999999 0.287318 0  0.574622 0.6881660000000001 0  0.5894740000000001 0.076262 0  0.502822 0.926683 0  0.222269 0.811068 0  0.380457 0.164786 0  0.15321 0.684154 0  0.458063 0.051413 0  0.161702 0.056026 0  0.199351 0.198818 0  0.298946 0.09553200000000001 0  0.902465 0.795949 0  0.121139 0.791477 0  0.906269 0.112287 0  0.056109 0.822332 0  0.512172 0.13237 0  0.940964 0.741805 0  0.888887 0.408777 0  0.354543 0.825964 0  0.808736 0.068638 0  0.068507 0.394071 0  0.719105 0.563843 0  0.247287 0.149664 0  0.293062 0.237128 0  0.240524 0.434997 0  0.141255 0.623289 0  0.945202 0.160621 0  0.502914 0.247629 0  0.144669 0.480811 0  0.665025 0.060817 0  0.728047 0.224344 0  0.861995 0.313312 0  0.200068 0.534235 0  0.253262 0.965623 0  0.893804 0.49307 0  0.604391 0.572456 0  0.947088 0.345347 0  0.439372 0.227307 0  0.629847 0.159823 0  0.273405 0.880181 0  0.302744 0.776823 0  0.781502 0.295365 0  0.275342 0.349602 0  0.7283849999999999 0.472798 0  0.229136 0.246478 0  0.807794 0.480346 0  0.709476 0.112786 0  0.275506 0.694991 0  0.771674 0.394419 0  0.449715 0.861802 0  0.419159 0.799696 0  0.674851 0.503139 0  0.280443 0.61016 0  0.572443 0.192538 0  0.393113 0.87525 0  0.405555 0.948428 0  0.330942 0.934103 0  0.540509 0.597101 0  0.312763 0.6689310000000001 0  0.254368 0.540179 0  0.595265 0.25915 0  0.606679 0.234099 0  0.657131 0.279138 0  0.722458 0.279478 0  0.333 0.308056 0  0.351529 0.246142 0  0.455714 0.7257940000000001 0  0.585239 0.295143 0  0.340062 0.72492 0  0.545593 0.293773 0  0.555449 0.545426 0  0.414311 0.737314 0  0.590854 0.502323 0  0.350507 0.368444 0  0.484423 0.625665 0  0.483899 0.674542 0  0.378137 0.317274 0  0.446416 0.646404 0  0.373532 0.347654 0  0.446876 0.619769 0  0.466106 0.666068 0  0.437545 0.609254 0  0.434988 0.565726 0  0.41462 0.656829 0  0.418803 0.556961 0  0.398425 0.327446 0  0.517803 0.310421 0  0.549516 0.322918 0  0.57701 0.842889 0  0.8291269999999999 0.773906 0  0.643235 0.684732 0  0.134281 0.207734 0  0.865997 0.055966 0  0.680959 0.723345 0  0.165229 0.8415550000000001 0  0.54558 0.959672 0  0.783726 0.656439 0  0.913315 0.595533 0  0.699439 0.860667 0  0.785839 0.125076 0  0.551673 0.037713 0  0.9200970000000001 0.223214 0  0.206406 0.299726 0  0.087064 0.596401 0  0.935644 0.394252 0  0.964557 0.252582 0  0.230124 0.928346 0  0.120579 0.271764 0  0.8572149999999999 0.524082 0  0.7670979999999999 0.5551469999999999 0  0.936094 0.507131 0  0.804064 0.59585 0  0.700565 0.608273 0  0.429773 0.174231 0  0.117746 0.727333 0  0.5389620000000001 0.730231 0  0.862761 0.359173 0  0.821444 0.284046 0  0.193552 0.35818 0  0.234923 0.505555 0  0.193209 0.421217 0  0.220144 0.755896 0  0.594015 0.131642 0  0.283813 0.195855 0  0.517519 0.213961 0  0.553509 0.639116 0  0.280391 0.378018 0  0.852183 0.436817 0  0.746983 0.197173 0  0.821806 0.221318 0  0.449853 0.828453 0  0.883758 0.453926 0  0.183484 0.589542 0  0.348384 0.129314 0  0.255254 0.838525 0  0.504849 0.798516 0  0.320344 0.863432 0  0.611669 0.525425 0  0.265864 0.804962 0  0.72056 0.521442 0  0.613372 0.6101220000000001 0  0.481262 0.881068 0  0.655778 0.191988 0  0.701921 0.196918 0  0.5658260000000001 0.5731810000000001 0  0.46914 0.240927 0  0.343219 0.173284 0  0.888786 0.278502 0  0.244113 0.6750930000000001 0  0.739546 0.417914 0  0.784023 0.355942 0  0.326805 0.265549 0  0.248616 0.6
[...]
<PointData  Scalars="u"> 
<DataArray  type="Float64"  Name="u"  format="ascii">3.6261950237004854e-02  4.7085465911595507e-02  2.6103254553230773e-02  6.3489842519549103e-02  -3.0117445391956023e-02  1.1224007923025663e-01  8.8605080513164389e-02  -1.9154572350329256e-03  1.6280609304659052e-07  1.9019651182528780e-07  3.0102038897114716e-08  3.0550492609806201e-07  2.8295686028027662e-05  -5.2166919019864806e-04  -5.0552855215185678e-04  -3.4019253183166748e-05  -7.2014498619089016e-04  3.6516919928751826e-03  5.6089221543429964e-03  2.1928791005747291e-03  5.6030989424705622e-04  -4.5004635616202595e-03  6.4009622752209004e-03  3.2970121143042264e-01  3.6470843745133219e-01  2.7995110188509037e-01  2.3616203679018588e-01  2.1940524723123553e-01  2.4751876894208219e-01  1.2593604816818665e-01  4.3288587549476254e-01  2.1842905280006281e-01  5.1861797453313131e-02  2.2027193744753094e-03  4.1440851585998265e-03  1.1149503609883499e-05  -1.7365995736670845e-05  -7.8870879936911146e-05  2.3918703255766261e-07  -7.7920058578704646e-08  -7.4531799699201495e-09  9.9386702094912950e-09  2.1693532459743849e-09  3.1413355349022780e-09  1.7844736617530797e-08  -2.4214857452089683e-05  -1.8555560769025696e-04  -1.1787284876069353e-03  1.4850362231058753e-02  8.2722977165324146e-02  7.9122355019777546e-03  7.5475317520313267e-03  -9.3421843499067493e-03  -7.5927410275795958e-03  2.7334789116643349e-02  1.5964840505879463e-01  6.1572490918659639e-01  3.5087453366769961e-01  6.8987180522581770e-01  6.2441585421771473e-01  1.5950393547936045e-01  2.4265598176694204e-02  1.3324108113370422e-02  1.8087622071667533e-01  2.7000385513938441e-01  7.1829184231145238e-01  7.7473513088430279e-01  8.6126390590223811e-01  9.0469192278836907e-01  8.5218694543445639e-01  8.0976972165533723e-01  8.6488432950502037e-01  8.7503472728960274e-01  6.8110916813844502e-01  3.5321454108101752e-01  8.4750121971724449e-02  5.0474489706170009e-02  1.0000000000000000e+00  1.0000000000000000e+00  -1.1745908977052842e-01  -2.6729821500802409e-01  3.9829591750858796e-02  3.5122185023444712e-02  3.3786742665100948e-02  4.2172231493378814e-02  4.7345410716143684e-02  4.2460432948768029e-02  4.4373754343661580e-02  6.1487277477935476e-02  9.7140063463995202e-02  4.8808050751789532e-02  2.8818400069516283e-02  -4.4349700679016009e-03  -6.2866393109220649e-05  -6.4552603529622650e-06  1.9878587851003332e-07  -1.1984797698803992e-07  -1.8824811732899881e-06  8.8576595629572506e-05  -9.7649483954599572e-04  -1.2880587388162559e-03  -2.1044272732677590e-03  7.7096900170306709e-04  6.6179095955629541e-02  2.1858692481591979e-01  1.8892294836176729e-01  2.4434051879405227e-01  2.6014041907376412e-01  1.4109446588893947e-02  -1.5005393958877330e-04  4.6103010442429150e-04  1.1736291077086863e-04  -1.6710010699629351e-06  -1.0470998777022705e-07  -7.9749583750991249e-07  -7.7803908599501379e-03  2.1661997744485220e-03  -6.5916966948883896e-02  4.1672678338358465e-01  4.3119086283884261e-01  4.5286106922504147e-03  6.0896285683087387e-02  5.1380560067707193e-01  7.4793858589540452e-01  8.6742079075369483e-01  7.7723718553064480e-01  5.5800967268205603e-01  1.5978089045179256e-01  7.5415488261398003e-02  7.2615280701594898e-02  6.6644208188731013e-02  1.0000000000000000e+00  1.0000000000000000e+00  1.0000000000000000e+00  1.0000000000000000e+00  1.0000000000000000e+00  1.0000000000000000e+00  1.0000000000000000e+00  1.0000000000000000e+00  1.0000000000000000e+00  9.7520959328020540e-01  1.0025613625171419e+00  1.0001021527203093e+00  9.8512923382017392e-01  7.1325621692555397e-01  4.0386841920381711e-01  4.9290261354393167e-01  -1.5897702975782399e-02  -1.8063815784329496e-01  -1.4176624263331150e-01  5.7312434539302914e-01  9.7436835770521202e-01  9.8923345602305890e-01  9.7349749714867972e-01  9.9846701052786813e-01  1.0007595162678709e+00  1.0323292008052898e+00  2.4156874706899384e-01  8.1408665330831209e-01  1.0459574633405355e+00  1.0384253722338055e+00  5.8595744347786383e-01  1.1802944077565177e-02  1.0219713501599610e+00  9.9204492120240140e-01  9.8430532372597623e-01  1.0342463254171705e+00  -1.7303626071513981e-02  1.0005057173987606e+00  1.0000554760868758e+00  9.9136934931748022e-01  9.9861291569949329e-01  9.9385743256909742e-01  1.0000423422393652e+00  1.0032035781008926e+00  5.0245112942198489e-01  1.0006343797408670e+00  9.9413610732479196e-01  6.5111306556582715e-01  8.6731342977407411e-01  1.0042540455079330e+00  9.9541601236412225e-01  -1.1636001112229217e-02  4.1377203775910504e-01  5.5904843575025689e-02  -4.6080064860453754e-07  4.1349733463885374e-01  1.9579684504703526e-06  1.0044349264723056e-01  6.9297190445295631e-01  1.0001071817119505e+00  1.0012107842211189e+00  9.9994115750622004e-01  9.9827577533804657e-01  9.9902071737792475e-01  1.0161263010868782e+00  1.0022343236975508e+00  9.9683972406002730e-01  9.9989821445731730e-01  1.0051923208158140e+00  1.0041411699195748e+00  9.9938713176446026e-01  1.0290328035820613e+00  9.9860592772084789e-01  9.9700387922128342e-01  9.8899607277267298e-01  1.0058197737714716e+00  1.0000040790871385e+00  9.9712474098469228e-01  9.9930915623526873e-01  1.0001155154237142e+00  9.9904017351633723e-01  3.1290231535857904e-01  9.9892584267958318e-01  1.0022480884868474e+00  -3.2591338433193410e-03  1.4981663265285672e-01  -1.5666526893231978e-04  6.0356936176318099e-01  8.3216892050730162e-01  -1.5813808519358440e-03  2.1976673227224064e-01  4.4695297582364177e-07  2.2393067545742396e-01  4.2373906006839338e-02  2.0734487434565425e-02  -1.9479510868217020e-03  3.5993466754440841e-07  -7.2674776708685467e-06  -2.8672736282595009e-06  4.4731490913341348e-07  2.3830691540650623e-07  1.4094426797956017e-01  9.3022790730985863e-02  5.3300665290727377e-02  9.9951982153037089e-01  1.0000074655312172e+00  9.9758315779627371e-01  9.9996043371009735e-01  1.0149501452566601e+00  9.9976023705217332e-01  9.9985088238972386e-01  9.9955190469028954e-01  1.0041757252706094e+00  5.3930475578552545e-02  1.0039002640178396e+00  1.0268659560909437e+00  9.9968751100754583e-01  9.9938755595410356e-01  1.0448586309204799e+00  9.9718824672977269e-01  9.9993344120502770e-01  1.0084842842664268e+00  9.9763249186588521e-01  9.9922151004467030e-01  1.0003484411883761e+00  1.0137505362837016e+00  4.7417160267687435e-03  1.0072745331580177e+00  1.0013348435531286e+00  3.0908013631488657e-01  1.0080725401433634e+00  9.9993278797504692e-01  9.9873474205642354e-01  9.7007785799375623e-01  5.6961125940588841e-01  9.9922476994842813e-01  9.9753484217229527e-01  2.3468945336279229e-01  1.0010737993729597e+00  1.0009136111325083e+00  9.9880649948835476e-01  1.0013016206820093e+00  9.9675060547946825e-01  9.9964073418616040e-01  9.9457688660150156e-01  6.9812005331090998e-01  9.1989365833788395e-01  1.0018019800348399e+00  9.5875178696802754e-01  1.0277320050098326e+00  7.2592150028706626e-01  -2.0855175706893759e-04  7.5229967371979700e-01  2.4330338553884800e-01  -9.2754864553561849e-04  1.3832159929022506e-01  5.0988760324300852e-01  -2.3188265924186137e-03  2.3972852477736878e-01  4.5810342057299837e-03  2.2669711677775705e-06  -5.1257739875109700e-05  2.3028378864265006e-07  -1.3989832888061623e-03  4.0830438524071977e-07  -4.9490947655706045e-03  -8.3106153796882749e-07  -2.7448595644900975e-08  3.8391181438952926e-01  6.6977334878421987e-02  1.0569302920299939e-01  5.7554083208003808e-02  1.0425373343587947e+00  1.0000027433060394e+00  9.9986294845056134e-01  1.0012148990266045e+00  1.0006594648829878e+00  1.0005530127349775e+00  1.0000758171850253e+00  1.0312573942579035e+00  9.9904272552257400e-01  1.0000872545840460e+00  9.9965022289957417e-01  1.0001721311866738e+00  1.0002307092864153e+00  9.9921986518702788e-01  1.0043072312982735e+00  1.0042306552437550e+00  9.9261908420661704e-01  9.9790217329222963e-01  1.0014796761768820e+00  8.9540576355878498e-01  1.0021134996323771e+00  1.0252578730344761e+00  1.0000102528164265e+00  1.0080934023001777e+00  9.9963496448140199e-01  9.9083619950220048e-01  1.0101079570552303e+00  1.0000018151293482e+00  9.9998896069202559e-01  9.9956738601275308e-01  9.9942920303228511e-01  6.9631021355586287e-01  1.0015588756031699e+00  1.0014572053991080e+00  9.9924101981197178e-01  -6.7064650461718944e-03  1.0129229991712354e+00  1.0002268216874788e+00  1.0011217843068803e+00  -5.4191926015598885e-02  9.9862463414442726e-01  9.9997892902132313e-01  9.9996474192574059e-01  1.9230664744394944e-03  9.9229883860472401e-01  1.0002380239924535e+00  9.9987448903624199e-01  9.9999924969888854e-01  9.9991789731968073e-01  1.0048436828140590e+00  9.9345331506779611e-01  9.9976032596390196e-01  1.0008586275749838e+00  4.4144823991674792e-01  1.0005679757219825e+00  9.9455861236609244e-01  1.0002113328287978e+00  9.9967679445313840e-01  9.5913192314601559e-01  9.9958214165016712e-01  1.0067358691520312e+00  9.9901907688032054e-01  1.0040105093216307e+00  1.9098203013454315e-02  9.9640120855642011e-01  1.0041800114723975e+00  9.9846376421179805e-01  1.0031230100612762e+00  1.0011655697494710e+00  1.9794488887221906e-01  -1.8368107029203167e-03  9.9728667873986265e-01  1.0019951046952771e+00  9.9926104143170180e-01  1.0005071224629249e+00  1.4917584912661214e-01  9.0739933301962450e-01  8.3510336537254481e-01  9.9111676984070818e-01  3.2273359892788406e-01  9.7398819872913323e-01  8.4119899585927116e-01  6.5760124152510735e-01  7.3680627672161481e-01  -2.7501086421819501e-04  4.0981315635611587e-01  5.2780025127075547e-01  -8.5907560303396334e-05  1.5708990071138293e-01  1.7265081502138847e-05  4.2471753805247273e-02  1.8815592975829840e-01  9.4717628283097662e-04  3.2839062172015868e-08  1.1896168174976264e-04  -7.1551921843747143e-08  -5.0995616989339585e-07  1.2785196076193614e-01  1.4840616046068314e-01  9.9811151522530861e-01  9.9991974951689377e-01  9.9930225700194930e-01  9.8422053552206157e-01  1.0018221239174996e+00  1.0004746538373677e+00  1.0047751979497546e+00  9.9904336218011436e-01  1.0000451468381382e+00  1.0000369934408979e+00  1.0004500714740958e+00  1.0001694412928441e+00  9.9354514252196202e-01  1.0000262855183069e+00  1.0206001687462445e+00  9.5959715525317679e-01  9.9999984403965780e-01  1.0003484936983149e+00  1.0176873851905797e+00  9.8884955294965238e-01  9.9977807716768485e-01  9.9922687947263511e-01  1.0000936946021242e+00  1.0000302649685382e+00  1.0014138744759291e+00  9.9262519252012693e-01  9.9695666300793173e-01  9.9925318836026333e-01  9.9980754308913622e-01  1.0003321652563655e+00  9.1930312618518883e-01  3.3612268921790296e-03  1.7881871533276522e-01  1.0004610778043848e+00  9.9258419144620080e-01  1.0058375464835576e+00  9.9684703545919062e-01  1.0007491781480682e+00  6.6552661885928135e-02  1.0001564915864376e+00  1.0001494035543088e+00  1.0005158276930455e+00  1.0010773787270550e+00  1.0000086520065075e+00  6.5719184966537347e-01  9.9362226540621879e-01  9.9779939219066938e-01  1.0014904722388778e+00  9.9205603677264809e-01  1.0092297516970408e+00  1.0032417797865123e+00  9.9847482315729141e-01  9.9883625253315989e-01  1.0045901686019123e+00  1.0053925343866768e+00  9.9683483171588450e-01  1.0114226071496748e+00  9.9973284726024170e-01  1.0010794867503576e+00  1.0008036100592359e+00  9.9750134106814881e-01  9.8479315453786653e-01  9.9861107894705492e-01  8.3597839143145958e-01  6.6077366238843549e-01  1.0007636143675924e+00  1.0005856632315582e+00  4.1758401757625063e-01  1.0013532324872516e+00  1.0028621421222088e+00  9.9828067153674138e-01  -1.3870463608891206e-02  9.9746295927178175e-01  1.0008654989025241e+00  1.0005516800064185e+00  9.9524163561639056e-01  2.2591822177258200e-01  1.0014416792980432e+00  1.0071948771312154e+00  1.5188148786394087e-03  -1.6892485989005397e-02  9.9974304511272571e-01  9.9899503257233457e-01  9.5293755564615157e-01  8.6452247749021571e-01  1.0260356909192083e+00  9.9316522045767142e-01  9.3799709121138330e-01  1.0032141102150811e+00  4.6629000193352388e-01  1.0087652326506933e+00  9.9902769799959290e-01  8.6514744587997239e-01  9.9957446406299366e-01  1.0106639284778822e+00  9.2225529273558216e-01  1.0069598869766709e+00  1.0008858452907163e+00  1.0241046191761700e+00  8.5452379484985297e-01  1.0004909274088314e+00  9.1945053738278426e-01  9.9958124508597690e-01  5.4925728354372261e-01  7.6990122648974946e-01  3.7458868078777893e-02  4.2033343942681206e-01  4.9688000697320045e-01  8.7161273120751526e-01  2.5858171922826245e-05  6.3426514527668643e-01  -6.1968467108928099e-06  9.6098187201716034e-02  1.0000637307493292e+00  1.0005484480524403e+00  1.0010399734651863e+00  9.9637373591016598e-01  1.0000141174987331e+00  1.0054362049846313e+00  9.9962526454403011e-01  1.0006305901793280e+00  9.9771041981791975e-01  9.9800050304343102e-01  1.0004739979775776e+00  9.9930889576242021e-01  1.0002249399621790e+00  9.4174531336302603e-01  9.8660793695653748e-01  1.0005175673306335e+00  1.0090008878462904e+00  9.9188844092645989e-01  1.0004636460333789e+00  1.0046348712073696e+00  9.9984402693317520e-01  9.9905323125829504e-01  1.0091759755632175e+00  9.9187224380699279e-01  4.2102001227641857e-04  1.0005077464868113e+00  1.0003240177617438e+00  1.0078568234179288e+00  9.9927354416197245e-01  9.9984445054863991e-01  1.0009408059650693e+00  -2.2429568259356075e-02  9.9978917178312243e-01  8.7769153856541304e-01  1.0010132375463572e+00  1.0019012760799426e+00  1.0001733669869479e+00  1.0039470919736970e+00  9.9937058407544266e-01  9.9874620503825884e-01  1.0049253279851436e+00  1.0035167614254408e+00  9.9837205373309157e-01  1.0002792378897287e+00  1.0109773361912666e+00  1.0010760848048958e+00  1.0028485930142561e+00  1.0014562250353216e+00  9.9984385943052589e-01  8.9489811536671482e-01  1.0032234583009059e+00  9.9929901538738819e-01  9.9037175960543566e-01  9.9886350989005512e-01  4.5290595041020426e-02  1.0002790530751982e+00  9.9893162363288457e-01  7.6033396645793827e-01  1.0085668222486057e+00  1.0026766475863778e+00  9.9788046867392588e-01  9.9656011946726830e-01  1.0020462108672261e+00  -5.7649518737931038e-03  1.0000198485253891e+00  1.0005817409661040e+00  9.9964025867377237e-01  7.9255388639872637e-01  6.6726232446607281e-01  9.9945017873002617e-01  9.9938504031314390e-01  1.0017427450049758e+00  -1.2773657844993435e-02  7.4579612685746788e-01  1.0019519120301870e+00  9.7880813621365592e-01  9.9932412088456501e-01  9.8550424828257743e-01  9.9881982719866580e-01  9.5880922698758597e-01  5.1587194839254991e-01  5.4847090824621347e-01  9.9500574163395061e-01  1.0010669998552233e+00  1.0028460113418998e+00  7.3661584453283335e-01  1.0102428044845233e+00  9.9795188833550741e-01  1.0028813865194044e+00  6.1144888507862172e-01  9.7932956794365689e-01  5.8133475601446560e-01  8.9613539283185162e-01  3.1113535181403495e-01  1.5923581680580606e-01  6.3442417121517158e-01  9.8425768545379633e-01  6.5220493669037005e-01  9.9504028282950674e-01  9.6952055898693068e-01  7.1752251545167622e-01  9.9132857343995040e-01  4.9200995181775264e-01  1.8939235948218133e-01  3.2065757703126763e-01  1.6923984217816379e-01  1.0225642941286339e+00  1.0000372522563690e+00  9.9785833225285259e-01  1.0010018464586456e+00  9.9968471284838933e-01  -1.6039771979241922e-04  1.0013465848594953e+00  1.0001116996728758e+00  1.0001938993235890e+00  1.0002907685588571e+00  9.9930802091094417e-01  1.0003596696965298e+00  1.0009563505892807e+00  1.0011707491203550e+00  -3.1758373785287413e-03  9.9888363846718931e-01  1.0082454766375946e+00  9.9828744633349931e-01  9.9817006821643695e-01  1.0135868239294807e+00  9.9976961438295486e-01  9.9971255792009794e-01  1.0074507815052873e+00  9.6477238775909235e-01  1.0028146068522994e+00  1.0050955182997410e+00  1.0356008375149537e+00  8.8730279210902152e-01  8.3888519331314004e-01  9.9853466623978115e-01  1.0011903213724744e+00  8.3443470812721943e-01  1.0004477280573369e+00  9.9970238669393729e-01  9.9748009318603714e-01  1.0006532216706754e+00  -7.5997336404779476e-03  9.9398249449264986e-01  1.0004709393695674e+00  1.0079760950350576e+00  8.7308358315633638e-01  1.0017470875230055e+00  9.9831203932091162e-01  1.0004895705806325e+00  7.4427352875876307e-01  9.9876009297113810e-01  9.9932874068812405e-01  9.7138105076012438e-01  1.0055958575941264e+00  9.9927308966086825e-01  1.0007424732138173e+00  1.0001164860774223e+00  9.8754777565549867e-01  1.0028989924154452e+00  9.7600579959422162e-01  1.0019179170627681e+00  1.0014291466843053e+00  5.2261202394957718e-01  7.4934991403442397e-01  8.9747277884574739e-01  4.1980777496051652e-01  2.1973690680817382e-02  8.9417203620854546e-01  1.0003741008380440e+00  8.9937837130119769e-01  4.5313521085038255e-01  9.2850231869668953e-01  9.9848799835174196e-01  4.6583361433849541e-01  3.8147783987872036e-01  1.0015810061337413e+00  9.9920414807752467e-01  1.0007119611205963e+00  4.3150015914291462e-01  7.6324550180721129e-01  9.7141851990755546e-01  9.4868797608468625e-01  5.4189411419523681e-01  9.0392081137258373e-01  3.9787528792692106e-01  4.7365060139061987e-01  3.4570317640079912e-01  9.9887348287049216e-01  9.9890996416857980e-01  1.0004012983385897e+00  9.9879059349474175e-01  9.9958793761202425e-01  1.0009796419676809e+00  1.0224149526182253e+00  9.9632323073963780e-01  1.0011903372774844e+00  1.0111352553749382e+00  1.0004472833287688e+00  9.9925264736405273e-01  1.0009617018810737e+00  1.0006266428530088e+00  1.0002282890411796e+00  1.0117242127025243e+00  9.3973119180486786e-01  1.0022939141982203e+00  1.0097346427079616e+00  1.0215698919590324e+00  1.0003860069095480e+00  8.1164228567323626e-01  9.9960460102155702e-01  9.0982211523249445e-01  6.5359829702554828e-01  9.2319252472168045e-01  1.0009836087112989e+00  9.7200725127256626e-01  9.1312852861754257e-01  7.1458732231229150e-01  6.8893926808736228e-01  5.2285294153663064e-01  3.0122986949352382e-01  8.1760916562501418e-01  3.8935826352902880e-01  7.2736930313616188e-01  3.4351832489060008e-01  9.9937127152364247e-01  1.0198654412270924e+00  9.1335460695149218e-01  1.0068204696224923e+00  9.9949827358134935e-01  8.0371704609154704e-01  1.0046226006127366e+00  7.5669128350830173e-01  9.5243109048168251e-01  9.9134947798328699e-01  6.6819298548995887e-01  3.7923780165474846e-01  9.5793051070869328e-01  9.5302819637631386e-01  1.9912513604893370e-01  2.2447461579233574e-01  2.0936740636933091e-01  7.5421869441499112e-01  9.0864237408891002e-01  3.9544822412195292e-02  3.6527865402322904e-02  3.4266838749479091e-02  4.4498633743882646e-02  4.0230239717476211e-02  6.0138462217842949e-02  3.9919448952455597e-02  4.9082962120132273e-02  6.3413003082259051e-03  7.1271752651417011e-02  5.2861733450166357e-02  9.1238614881925147e-03  1.6677791868958739e-02  3.0312863240168120e-02  6.7374013877696759e-02  8.2041471365398827e-02  3.9829854205022247e-02  -1.4626555926550641e-04  -3.4789969039528169e-03  -3.2136842178557900e-04  -1.8446802253732436e-05  -1.1996341250002053e-06  1.5471740460576726e-07  2.5868084307124550e-07  7.6525929859127506e-08  2.6128141654175705e-07  2.3393295775876283e-07  -1.4317125213373891e-06  8.4244371547470408e-06  6.3601543664471382e-05  2.1669653792697900e-04  3.8430889407421151e-04  -5.9067920885475618e-04  -7.4934295694467580e-04  -9.6356972767790497e-04  -2.6438309637610141e-04  -1.0175557117548938e-03  1.5663198303524329e-03  4.1267023888115371e-03  2.6528771605200969e-03  1.0101998972787706e-03  9.5304156305292369e-04  -1.4958968102395389e-03  -7.3748272854679111e-03  9.0827968618159116e-04  1.2288022159501862e-01  2.7763540588488944e-01  3.2323720422141039e-01  2.7128295850052075e-01  2.0333490439313953e-01  2.0402037913056548e-01  2.1891959823503784e-01  2.8727925840741714e-01  4.0360701637008606e-01  1.8852711255205309e-01  1.3674304796044412e-01  3.2729844482422465e-01  1.9834592003562407e-01  1.2801468844107616e-01  3.7240806088616782e-02  2.1331339190695946e-02  -1.4594624142805834e-02  1.6868546963079679e-03  -3.1611765225411146e-05  2.0869029050038399e-05  1.1094397100013435e-04  -1.9088361630650291e-04  1.31092250726