<?xml version="1.0"?>
<VTKFile type="UnstructuredGrid"  version="0.1"  >
<UnstructuredGrid>
<Piece  NumberOfPoints="2868" NumberOfCells="5400">
<Points>
<DataArray  type="Float64"  NumberOfComponents="3"  format="ascii">0.534923 0.326073 0  0.510642 0.314196 0  0.466125 0.293082 0  0.436448 0.281205 0  0.409468 0.275927 0  0.368998 0.270648 0  0.35281 0.275927 0  0.381139 0.302319 0  0.405421 0.326073 0  0.410817 0.33531 0  0.408119 0.349826 0  0.400025 0.357744 0  0.375743 0.368301 0  0.329878 0.392055 0  0.297502 0.432963 0  0.282663 0.476511 0  0.285361 0.524018 0  0.298851 0.572845 0  0.317737 0.6045160000000001 0  0.337972 0.6361869999999999 0  0.360904 0.674457 0  0.368998 0.69953 0  0.359555 0.7219640000000001 0  0.360904 0.757594 0  0.370347 0.766831 0  0.381139 0.762872 0  0.390582 0.741758 0  0.404072 0.720644 0  0.424307 0.707448 0  0.447239 0.702169 0  0.480964 0.704808 0  0.479615 0.6889729999999999 0  0.468823 0.675776 0  0.447239 0.6691780000000001 0  0.428354 0.6691780000000001 0  0.410817 0.6639 0  0.404072 0.653343 0  0.395978 0.628269 0  0.387884 0.59132 0  0.389233 0.576804 0  0.397327 0.557009 0  0.410817 0.547772 0  0.424307 0.546452 0  0.437797 0.55305 0  0.44589 0.5662469999999999 0  0.441843 0.582082 0  0.439145 0.5979179999999999 0  0.449937 0.609795 0  0.468823 0.603196 0  0.479615 0.59 0  0.489058 0.570205 0  0.494454 0.546452 0  0.505246 0.522699 0  0.522783 0.509502 0  0.55246 0.494986 0  0.586185 0.484429 0  0.615863 0.48047 0  0.64554 0.473872 0  0.6671240000000001 0.461995 0  0.683312 0.451438 0  0.696802 0.435603 0  0.703547 0.417128 0  0.7116400000000001 0.393374 0  0.7183850000000001 0.37226 0  0.7251300000000001 0.364342 0  0.739969 0.353785 0  0.7453650000000001 0.344548 0  0.7453650000000001 0.327393 0  0.737271 0.318155 0  0.7183850000000001 0.316835 0  0.7008490000000001 0.319475 0  0.677916 0.318155 0  0.650936 0.316835 0  0.610467 0.318155 0  0.57944 0.324753 0  0.559205 0.328712 0  0.5389699999999999 0.326073 0  1 1 0  1 0 0  0 0 0  0 1 0  0.532238 0.32476 0  0.528748 0.323052 0  0.52421 0.320833 0  0.518311 0.317947 0  0.503447 0.310783 0  0.494093 0.306347 0  0.481933 0.30058 0  0.452151 0.28749 0  0.392327 0.273691 0  0.379141 0.271971 0  0.360474 0.283066 0  0.369797 0.291752 0  0.391424 0.31238 0  0.399335 0.32012 0  0.40958 0.341964 0  0.393939 0.36039 0  0.386028 0.36383 0  0.364248 0.374254 0  0.349304 0.381994 0  0.315801 0.409841 0  0.292986 0.551616 0  0.350934 0.657818 0  0.360127 0.737055 0  0.360566 0.748664 0  0.385245 0.753692 0  0.396447 0.732578 0  0.466301 0.703661 0  0.459439 0.672908 0  0.418442 0.666195 0  0.400553 0.642441 0  0.39255 0.612619 0  0.389913 0.60058 0  0.392752 0.568197 0  0.444131 0.573132 0  0.458149 0.606926 0  0.5005540000000001 0.533026 0  0.571522 0.489019 0  0.632637 0.476741 0  0.689177 0.444553 0  0.708121 0.403702 0  0.715453 0.38144 0  0.732406 0.359166 0  0.7453650000000001 0.337089 0  0.72906 0.317581 0  0.629879 0.317522 0  0.59293 0.321884 0  0.568003 0.326991 0  0.55202 0.327775 0  0.546493 0.327054 0  0.542241 0.326499 0  1 0.9 0  1 0.8 0  1 0.7 0  1 0.6 0  1 0.5 0  1 0.4 0  1 0.3 0  1 0.2 0  1 0.1 0  0.9 0 0  0.8 0 0  0.7 0 0  0.6 0 0  0.5 0 0  0.4 0 0  0.3 0 0  0.2 0 0  0.1 0 0  0.1 1 0  0.2 1 0  0.3 1 0  0.4 1 0  0.5 1 0  0.6 1 0  0.7 1 0  0.8 1 0  0.9 1 0  0 0.1 0  0 0.2 0  0 0.3 0  0 0.4 0  0 0.5 0  0 0.6 0  0 0.7 0  0 0.8 0  0 0.9 0  0.535686 0.5031910000000001 0  0.753987 0.733359 0  0.167145 0.741436 0  0.173378 0.257204 0  0.733497 0.159862 0  0.554096 0.15788 0  0.849187 0.479053 0  0.488793 0.838452 0  0.138507 0.5592 0  0.30686 0.154944 0  0.348904 0.890523 0  0.058006 0.065099 0  0.06984899999999999 0.937917 0  0.93633 0.939704 0  0.934625 0.053613 0  0.343397 0.333452 0  0.473272 0.639943 0  0.433266 0.638072 0  0.415174 0.58269 0  0.533435 0.545042 0  0.390848 0.340652 0  0.53655 0.320242 0  0.127966 0.393775 0  0.83861 0.850455 0  0.635242 0.8551299999999999 0  0.852158 0.633441 0  0.653427 0.626848 0  0.861226 0.24292 0  0.166128 0.12976 0  0.216875 0.8698709999999999 0  0.458305 0.11179 0  0.84446 0.101633 0  0.202024 0.642528 0  0.644825 0.115855 0  0.671342 0.218358 0  0.251354 0.286186 0  0.262388 0.75153 0  0.063044 0.751571 0  0.068189 0.242962 0  0.435781 0.9053949999999999 0  0.934144 0.451133 0  0.568393 0.237622 0  0.814984 0.395506 0  0.752951 0.517227 0  0.456254 0.780699 0  0.073352 0.531116 0  0.337731 0.206071 0  0.363213 0.960371 0  0.330742 0.363592 0  0.516613 0.55705 0  0.369057 0.332992 0  0.500926 0.617309 0  0.498004 0.665534 0  0.412142 0.61178 0  0.454233 0.6366039999999999 0  0.422782 0.567496 0  0.541193 0.5214800000000001 0  0.439761 0.65557 0  0.5163 0.533672 0  0.414775 0.64562 0  0.40073 0.576135 0  0.430362 0.5880339999999999 0  0.385432 0.351492 0  0.400298 0.335397 0  0.398325 0.348194 0  0.528702 0.314885 0  0.540814 0.322334 0  0.534477 0.322953 0  0.619095 0.743583 0  0.885162 0.737972 0  0.08076 0.668849 0  0.90734 0.36634 0  0.09468699999999999 0.868937 0  0.759838 0.912152 0  0.901518 0.540898 0  0.747285 0.607479 0  0.229182 0.071641 0  0.06915399999999999 0.450091 0  0.244775 0.203309 0  0.076534 0.331755 0  0.897847 0.167826 0  0.578909 0.911415 0  0.07713299999999999 0.146341 0  0.477215 0.203448 0  0.922631 0.869341 0  0.517415 0.074785 0  0.297026 0.827793 0  0.7832710000000001 0.246505 0  0.74519 0.061079 0  0.36033 0.069068 0  0.210313 0.475228 0  0.859426 0.928758 0  0.5745479999999999 0.609182 0  0.243069 0.383398 0  0.283099 0.934598 0  0.417416 0.843141 0  0.643942 0.553164 0  0.112687 0.079336 0  0.281357 0.658386 0  0.765043 0.436177 0  0.611361 0.198486 0  0.234496 0.58911 0  0.206479 0.702638 0  0.679608 0.155818 0  0.62682 0.259978 0  0.690538 0.264164 0  0.448938 0.956308 0  0.808154 0.328403 0  0.379583 0.91913 0  0.308083 0.297769 0  0.312358 0.730249 0  0.563101 0.278576 0  0.435597 0.746198 0  0.385475 0.225229 0  0.572248 0.518034 0  0.357864 0.35422 0  0.497647 0.641694 0  0.458101 0.655768 0  0.360474 0.310727 0  0.467038 0.620139 0  0.47798 0.659909 0  0.41102 0.628072 0  0.48324 0.609015 0  0.427544 0.617941 0  0.388633 0.328253 0  0.405336 0.599404 0  0.408351 0.565178 0  0.42395 0.600985 0  0.431562 0.576523 0  0.424905 0.6551979999999999 0  0.398064 0.58782 0  0.427739 0.557934 0  0.5192909999999999 0.303443 0  0.53142 0.320293 0  0.5449000000000001 0.323642 0  0.537166 0.323513 0  0.153974 0.920841 0  0.9181859999999999 0.67343 0  0.759946 0.820588 0  0.5375259999999999 0.783091 0  0.816532 0.545843 0  0.813991 0.178083 0  0.836774 0.702023 0  0.149815 0.318856 0  0.662287 0.923338 0  0.680146 0.791192 0  0.708961 0.663172 0  0.9372779999999999 0.287318 0  0.574622 0.6881660000000001 0  0.5894740000000001 0.076262 0  0.502822 0.926683 0  0.222269 0.811068 0  0.380457 0.164786 0  0.15321 0.684154 0  0.458063 0.051413 0  0.161702 0.056026 0  0.199351 0.198818 0  0.298946 0.09553200000000001 0  0.902465 0.795949 0  0.121139 0.791477 0  0.906269 0.112287 0  0.056109 0.822332 0  0.512172 0.13237 0  0.940964 0.741805 0  0.888887 0.408777 0  0.354543 0.825964 0  0.808736 0.068638 0  0.068507 0.394071 0  0.719105 0.563843 0  0.247287 0.149664 0  0.293062 0.237128 0  0.240524 0.434997 0  0.141255 0.623289 0  0.945202 0.160621 0  0.502914 0.247629 0  0.144669 0.480811 0  0.665025 0.060817 0  0.728047 0.224344 0  0.861995 0.313312 0  0.200068 0.534235 0  0.253262 0.965623 0  0.893804 0.49307 0  0.604391 0.572456 0  0.947088 0.345347 0  0.439372 0.227307 0  0.629847 0.159823 0  0.273405 0.880181 0  0.302744 0.776823 0  0.781502 0.295365 0  0.275342 0.349602 0  0.7283849999999999 0.472798 0  0.229136 0.246478 0  0.807794 0.480346 0  0.709476 0.112786 0  0.275506 0.694991 0  0.771674 0.394419 0  0.449715 0.861802 0  0.419159 0.799696 0  0.674851 0.503139 0  0.280443 0.61016 0  0.572443 0.192538 0  0.393113 0.87525 0  0.405555 0.948428 0  0.330942 0.934103 0  0.540509 0.597101 0  0.312763 0.6689310000000001 0  0.254368 0.540179 0  0.595265 0.25915 0  0.606679 0.234099 0  0.657131 0.279138 0  0.722458 0.279478 0  0.333 0.308056 0  0.351529 0.246142 0  0.455714 0.7257940000000001 0  0.585239 0.295143 0  0.340062 0.72492 0  0.545593 0.293773 0  0.555449 0.545426 0  0.414311 0.737314 0  0.590854 0.502323 0  0.350507 0.368444 0  0.484423 0.625665 0  0.483899 0.674542 0  0.378137 0.317274 0  0.446416 0.646404 0  0.373532 0.347654 0  0.446876 0.619769 0  0.466106 0.666068 0  0.437545 0.609254 0  0.434988 0.565726 0  0.41462 0.656829 0  0.418803 0.556961 0  0.398425 0.327446 0  0.517803 0.310421 0  0.549516 0.322918 0  0.57701 0.842889 0  0.8291269999999999 0.773906 0  0.643235 0.684732 0  0.134281 0.207734 0  0.865997 0.055966 0  0.680959 0.723345 0  0.165229 0.8415550000000001 0  0.54558 0.959672 0  0.783726 0.656439 0  0.913315 0.595533 0  0.699439 0.860667 0  0.785839 0.125076 0  0.551673 0.037713 0  0.9200970000000001 0.223214 0  0.206406 0.299726 0  0.087064 0.596401 0  0.935644 0.394252 0  0.964557 0.252582 0  0.230124 0.928346 0  0.120579 0.271764 0  0.8572149999999999 0.524082 0  0.7670979999999999 0.5551469999999999 0  0.936094 0.507131 0  0.804064 0.59585 0  0.700565 0.608273 0  0.429773 0.174231 0  0.117746 0.727333 0  0.5389620000000001 0.730231 0  0.862761 0.359173 0  0.821444 0.284046 0  0.193552 0.35818 0  0.234923 0.505555 0  0.193209 0.421217 0  0.220144 0.755896 0  0.594015 0.131642 0  0.283813 0.195855 0  0.517519 0.213961 0  0.553509 0.639116 0  0.280391 0.378018 0  0.852183 0.436817 0  0.746983 0.197173 0  0.821806 0.221318 0  0.449853 0.828453 0  0.883758 0.453926 0  0.183484 0.589542 0  0.348384 0.129314 0  0.255254 0.838525 0  0.504849 0.798516 0  0.320344 0.863432 0  0.611669 0.525425 0  0.265864 0.804962 0  0.72056 0.521442 0  0.613372 0.6101220000000001 0  0.481262 0.881068 0  0.655778 0.191988 0  0.701921 0.196918 0  0.5658260000000001 0.5731810000000001 0  0.46914 0.240927 0  0.343219 0.173284 0  0.888786 0.278502 0  0.244113 0.6750930000000001 0  0.739546 0.417914 0  0.784023 0.355942 0  0.326805 0.265549 0  0.248616 0.6
[...]
<PointData  Scalars="u"> 
<DataArray  type="Float64"  Name="u"  format="ascii">1.6818604634046527e-01  2.0064715150621709e-01  2.4834328257662872e-01  3.2901828722680254e-01  3.0255281563698272e-01  3.8515560657810899e-01  3.4780508260174831e-01  5.0163178292370926e-04  -8.4166161839005061e-06  -3.3903302919542943e-06  1.7714211026179924e-07  -2.7497351018670529e-07  -4.8014971194153329e-05  1.9317503504096996e-03  2.7255801383785829e-03  -7.2431357428702899e-05  8.2270858580525707e-04  3.7750025581317808e-03  1.2934357293808388e-03  3.1732234682036657e-04  -2.8618828303331582e-03  2.3355701636169229e-03  1.0452873973674648e-01  7.0833333596855352e-01  7.3835379337673268e-01  6.6484659001568391e-01  6.1294897588954744e-01  6.2286224534130397e-01  6.2157549675710611e-01  4.6432841638415684e-01  8.0881130141543822e-01  6.0467189711965885e-01  3.4403549561681596e-01  1.6156753465707369e-01  -2.9800793627899825e-02  -3.2595883181521100e-04  -7.2393185876225210e-04  2.9066047757866621e-04  2.8534164388965388e-06  -5.0398527259611395e-06  -3.9684350570282586e-07  1.6546593564244120e-07  2.2945254072740234e-07  1.4578091658665554e-07  1.0907998647238969e-06  1.0620039744754541e-03  1.1799506356557939e-02  1.4099489127891496e-01  2.6391847648907923e-01  4.2539685197455918e-01  1.4479210647820359e-01  -5.0694894418364098e-02  1.9809841636621250e-03  1.6296458177816575e-01  2.0570617359048263e-01  5.5303206333978294e-01  8.8948346627631236e-01  6.8745182208103695e-01  8.9296921614562574e-01  8.0386802661559098e-01  3.5349856217224596e-01  1.5301151810303990e-01  1.8290460871663414e-01  4.4815637645895667e-01  5.5979370373490189e-01  9.1013610112399457e-01  9.3518168423411763e-01  9.6080766407959928e-01  9.7383991793214353e-01  9.6156482329487769e-01  9.5171158795970845e-01  9.7132006671419757e-01  9.7966253075471454e-01  9.3138874742474242e-01  7.1487724089204030e-01  3.0941606483622225e-01  2.0500342695988982e-01  1.0000000000000000e+00  1.0000000000000000e+00  -3.0378642047344556e-01  -4.2330709873168226e-01  1.7434748732929770e-01  1.6216725484473415e-01  1.6154440026517064e-01  1.8079130906127891e-01  2.1129601784397961e-01  2.2052009319756077e-01  2.2750428756183036e-01  3.3730433413838889e-01  3.9877321909171703e-01  3.0629257279608119e-01  1.5044922260042390e-01  1.2436338359078742e-02  -2.4488186782817349e-04  -4.8276397658408897e-05  -7.1323335587272312e-07  1.2421870268239450e-06  5.6178384217636029e-06  -1.0296067535317211e-04  -1.0337461998690171e-04  1.4692759756978365e-03  4.7191052689082563e-03  -5.9299955027926701e-04  3.1226692437155729e-01  5.7625655220585781e-01  5.4777432568984208e-01  6.2775618612217321e-01  6.5537041371107718e-01  2.2557927623368104e-01  -1.9996802734596744e-03  -8.9539271208874584e-03  -4.4875622070767946e-03  9.4593110972453871e-04  -7.8507873720174673e-06  -5.3765648579312609e-05  1.0994061506988581e-01  -1.0667666944511043e-02  9.4424247561315511e-02  7.4610028442549758e-01  6.6422816812513019e-01  1.1399558436509048e-01  2.3715161056305381e-01  7.8332772525884908e-01  9.2748725446835889e-01  9.6489200058569813e-01  9.5877414799076643e-01  8.7757782623114100e-01  4.7652897835790969e-01  2.7359458450478785e-01  2.6128704596248697e-01  2.4293892417373095e-01  1.0000000000000000e+00  1.0000000000000000e+00  1.0000000000000000e+00  1.0000000000000000e+00  1.0000000000000000e+00  1.0000000000000000e+00  1.0000000000000000e+00  1.0000000000000000e+00  1.0000000000000000e+00  9.8760757176025016e-01  1.0013491742120915e+00  9.9991800663446018e-01  9.9661530309685264e-01  8.9746353827434877e-01  6.6401550491570360e-01  7.9587366995331488e-01  3.1421757526513583e-01  -1.8065773660701689e-01  1.4969262215168924e-01  8.3059325665686312e-01  9.9931806327656114e-01  9.9957113492793437e-01  9.9779986846548663e-01  9.9994038162360455e-01  1.0006647534882740e+00  1.0206029047832086e+00  5.1617237944667516e-01  1.0230348150755419e+00  1.0049238185870226e+00  9.9901124145750475e-01  1.0315983205148898e+00  2.1777343315347567e-01  9.9914736192565745e-01  9.9918475746775481e-01  9.9351218473858005e-01  1.0464350688972250e+00  1.1069162517680176e-01  9.9999872191633155e-01  1.0029464791252412e+00  9.9802333360307882e-01  9.9974017853791586e-01  1.0048376756029174e+00  9.9989328689337287e-01  1.0006578151355709e+00  9.2401485970693620e-01  9.9292652403531878e-01  9.9977581058063592e-01  8.8450865705259984e-01  9.5954920611438632e-01  1.0021675017996239e+00  9.9769785244703624e-01  -1.3878407050341829e-02  8.3688213470495876e-01  4.0641719064311388e-01  -1.6792021542986080e-03  7.9770952541549989e-01  -9.4869086455972172e-06  2.9505757626372131e-01  1.0542895071426284e+00  1.0000290056437269e+00  9.9982850399684320e-01  1.0000026623365470e+00  9.9979136391472223e-01  1.0005025702899910e+00  1.0041766577936357e+00  9.9568936255605589e-01  9.9497139352372554e-01  9.9967023664919696e-01  1.0188840063471483e+00  9.9959707681208232e-01  1.0006961406917203e+00  1.0087732019021214e+00  1.0005822640785624e+00  1.0008095312287433e+00  9.9701236757091283e-01  9.9710925239878412e-01  9.9999845090775652e-01  1.0005088765943841e+00  9.9986879238765469e-01  1.0003124055206785e+00  9.9995219847116024e-01  7.2069369860225996e-01  9.9768708746022683e-01  9.9991601337040803e-01  -1.9143650649054683e-02  4.9117936917073884e-01  -7.3657251720461682e-04  9.3679074143868890e-01  9.9990988096412659e-01  5.6787418494826693e-02  6.3359314289582880e-01  1.4459478071510951e-05  6.1346118182526232e-01  3.2957828557616264e-01  2.3954890149762953e-01  1.9480472290746217e-02  2.4651382696391530e-06  -1.5512924971758194e-05  1.8568626812586870e-06  -3.0169097599270875e-06  -5.6068950390221833e-07  3.6234115424163416e-01  2.8787325733704650e-01  2.0394725097262220e-01  9.9974620621535837e-01  1.0000000480528997e+00  9.9893307103236972e-01  9.9999658569804462e-01  1.0057644912575958e+00  9.9984647659863979e-01  1.0000512617428059e+00  9.9993047523966283e-01  1.0074849556248102e+00  1.9052456384547392e-01  1.0030998010267826e+00  9.9851343370228263e-01  1.0001758632133761e+00  1.0003161275024923e+00  1.0101482275755771e+00  9.9947459304599440e-01  9.9994426119705060e-01  9.9988090471436586e-01  1.0017513919795340e+00  9.9934715337476576e-01  1.0000510880282323e+00  1.0045243328463720e+00  -1.8144559571794533e-02  1.0041128890996778e+00  9.9935105723689432e-01  6.7718688169242935e-01  9.9834095408373813e-01  9.9892901786442612e-01  9.9918026045531683e-01  1.0282283670997747e+00  9.0964331598395132e-01  9.9980363833600749e-01  9.9783609661995110e-01  6.3286605341214786e-01  9.9860030545183753e-01  1.0009576983522330e+00  9.9982574594197005e-01  1.0003260474608267e+00  1.0006634042319860e+00  9.9989647023600792e-01  1.0002501613531352e+00  8.9339441833175881e-01  1.0101467288799204e+00  1.0005631143599045e+00  1.0054558798414377e+00  1.0100037783316378e+00  9.6059275539130284e-01  1.6102955885645574e-03  9.9445717732454808e-01  6.5231546143228913e-01  -4.9708555144045222e-03  5.0686800977610047e-01  9.1046308703386580e-01  7.7583955424326709e-02  6.4141585774667420e-01  2.3864472812321819e-01  -5.6397582105126615e-05  -3.3993491999341057e-04  2.1149977810525227e-05  6.0145762469723835e-02  -1.7383926430666796e-04  5.6297192378884836e-02  -2.4766985971673129e-04  -8.1361378661689226e-07  6.7561277631290084e-01  2.2971512738709360e-01  3.1571931663471819e-01  2.1584649491744329e-01  1.0218635804463756e+00  9.9999982709936130e-01  1.0000501876134045e+00  9.9996449093063855e-01  9.9953681273011241e-01  9.9980432149327836e-01  1.0000008783933072e+00  9.9899261427582065e-01  9.9996801601315366e-01  9.9995906480597585e-01  1.0000597436551435e+00  9.9995935699287863e-01  9.9966413880815597e-01  1.0010427475746109e+00  9.9951027987233854e-01  9.9599017246694543e-01  1.0076284617070059e+00  9.9817800541849000e-01  1.0042788223655095e+00  9.8666085567990303e-01  1.0047778946604777e+00  1.0065930570710011e+00  1.0000024531361169e+00  1.0061783691235082e+00  9.9973489435824825e-01  9.9641505665383834e-01  1.0013129619298942e+00  9.9999986648608730e-01  1.0000009209224539e+00  1.0004220571319045e+00  9.9976620642642777e-01  1.0605760168438634e+00  1.0000442262716385e+00  9.9856739501284475e-01  9.9923954066546350e-01  2.5960218439664267e-02  1.0042494492881093e+00  9.9995458348665189e-01  1.0006727016855435e+00  -1.1311638103390213e-01  9.9977415771057188e-01  9.9993985741449898e-01  1.0003027684046346e+00  1.8068262643476385e-01  9.9858868499676567e-01  9.9991979998405334e-01  1.0000169703628436e+00  1.0000005196294450e+00  9.9869547942422332e-01  9.9905568697540581e-01  1.0053038015161158e+00  9.9998800832812851e-01  9.9997631456050395e-01  7.6360157000072082e-01  9.9969342394314109e-01  1.0006197114248900e+00  9.9984098625227946e-01  1.0003159869473564e+00  1.0094361467120483e+00  1.0001460081977025e+00  9.9998459813923557e-01  9.9983317180899667e-01  1.0020653549422591e+00  1.8618308926810884e-01  1.0009849688376857e+00  9.9652177898781191e-01  1.0013916208390994e+00  1.0010466402846077e+00  1.0062909256831973e+00  5.0347564427230829e-01  -2.5056196040583723e-02  1.0008112169811105e+00  9.9942618630253355e-01  1.0003959994198499e+00  1.0003917684077066e+00  3.9455091072619142e-01  9.7634416121418688e-01  9.8041416804836212e-01  9.9979513337843740e-01  6.7001620649130122e-01  9.9905589008640339e-01  1.0001917363095012e+00  9.2250227118284012e-01  9.1064969043052812e-01  6.5418403891317665e-04  8.2157940570533172e-01  8.8142722922846350e-01  -6.8247146339003352e-04  5.5524924904101014e-01  -8.2932031696766791e-05  3.4444047542794548e-01  5.3278324059556825e-01  1.7321064109391521e-01  7.1392512208637924e-06  -1.1629639285078508e-03  -3.2924061747250756e-06  -1.9451860988368224e-05  3.4145802888389554e-01  3.9077058719934521e-01  9.9976051723160908e-01  1.0000018161187498e+00  1.0000309606438456e+00  9.9584357994456008e-01  1.0009171657431288e+00  1.0000200494573024e+00  9.9731374708076881e-01  9.9979756078646087e-01  9.9998312884861484e-01  9.9999683583295440e-01  1.0001509558471453e+00  1.0001215825435965e+00  9.9818390539218382e-01  1.0000095672687228e+00  1.0015473535356672e+00  1.0090145156042756e+00  9.9999970712299180e-01  9.9992657150453279e-01  1.0020001636117171e+00  9.9813848416546225e-01  1.0002880090687576e+00  9.9966714876598561e-01  9.9998383533046664e-01  9.9995578028342269e-01  1.0000224099282242e+00  1.0010498182202343e+00  1.0016323400181162e+00  1.0001424174508029e+00  1.0000038001196561e+00  1.0003900178769163e+00  1.0362623676535809e+00  -4.8852730174600255e-03  4.9555298412864152e-01  1.0009986003505706e+00  9.9744821369222914e-01  9.9548505145381427e-01  1.0005479010648619e+00  9.9994598478503016e-01  2.6270197052073019e-01  9.9998758356353823e-01  1.0002902347860501e+00  1.0001269903311338e+00  9.9946857804358147e-01  9.9994321605655667e-01  9.6867507798371999e-01  1.0017015590363871e+00  1.0023340822936690e+00  9.9991325705402301e-01  1.0024064950267080e+00  1.0046478556004350e+00  9.9906820076561609e-01  9.9978096538733352e-01  1.0001825054684093e+00  1.0012431752271296e+00  1.0020506505244577e+00  9.9894863388371213e-01  1.0016571514784014e+00  1.0001873456225296e+00  1.0006143463435120e+00  9.9971564504946075e-01  1.0072632315490679e+00  9.9233659898342996e-01  1.0000625477716598e+00  9.5063656474087355e-01  9.5444052951637937e-01  1.0001524214866719e+00  1.0000407215523122e+00  7.6848813130451965e-01  9.9990825891256585e-01  9.9956615559829665e-01  1.0003946981896585e+00  8.1944668959031006e-02  1.0007099033243283e+00  9.9992882235021308e-01  1.0005098516494353e+00  9.9996888247446236e-01  5.3422289336547735e-01  1.0002945053569576e+00  9.9816466956522543e-01  -1.4516936994895847e-03  -2.2578103744040529e-02  9.9969596393022875e-01  9.9976556808800121e-01  1.0054047766116441e+00  1.0027374372684976e+00  1.0196953372596242e+00  1.0189489390997497e+00  9.7136803712230069e-01  1.0026194147415899e+00  8.6038401118256558e-01  9.9815156698771812e-01  1.0002326578514411e+00  9.8334734193180462e-01  9.9988949374526870e-01  1.0000377778576321e+00  9.6398382742030198e-01  1.0027030883593022e+00  9.9951943131932042e-01  1.0079490022133619e+00  9.5024744860508026e-01  1.0003028864172117e+00  9.9064883028548512e-01  9.9997155537149096e-01  8.5777464498467604e-01  9.5274709217668541e-01  2.0297692280069721e-01  7.6041815594677942e-01  7.8852926070217511e-01  9.7616716474403398e-01  -3.5005287200640543e-05  8.8317988022023952e-01  -5.8506735270155584e-05  2.8546138248970060e-01  9.9999422743211108e-01  9.9986591138884973e-01  9.9985895769895428e-01  1.0007755263849298e+00  9.9984073905654103e-01  9.9708668375069520e-01  1.0002204811163604e+00  1.0000425442222431e+00  1.0001523937947296e+00  1.0042780655766312e+00  1.0002818619884026e+00  1.0002466008914321e+00  9.9999595548443487e-01  1.0149535024236214e+00  1.0067685128134607e+00  9.9994711544856696e-01  9.9318365280562071e-01  9.9689376829055543e-01  1.0000396593930718e+00  9.9926951150441701e-01  1.0000036917276856e+00  1.0014143343337616e+00  9.9980822354611776e-01  1.0047411825174528e+00  2.3151022540036808e-03  9.9994140689051159e-01  9.9986021456705076e-01  9.9931896333025005e-01  9.9977017386391753e-01  9.9998800366014973e-01  1.0000928486762160e+00  -4.2091289068238592e-02  9.9998316590721048e-01  9.6697975617068355e-01  1.0001800737626461e+00  9.9941982856728884e-01  9.9989482641826399e-01  1.0027470653865920e+00  9.9936713105166930e-01  9.9953421787914409e-01  9.9554434265746938e-01  9.9893396863030115e-01  9.9770829821495788e-01  9.9981460294074931e-01  1.0002187507928424e+00  9.9936765725125232e-01  9.9903241542933441e-01  1.0005630017176554e+00  9.9999271738285156e-01  9.9912525171489275e-01  1.0059882293192475e+00  9.9999044555864225e-01  1.0049067446435074e+00  9.9995383846615171e-01  2.2643254366545593e-01  1.0000828047568333e+00  9.9999457712582651e-01  9.8801901343117648e-01  1.0044366861009506e+00  1.0010311965584167e+00  1.0001655567501624e+00  9.9961523611690994e-01  9.9910412469937027e-01  3.2901065757967821e-02  1.0000560803774117e+00  9.9985987684325273e-01  9.9905908756376305e-01  9.5288732726319725e-01  9.3873702971696060e-01  1.0001152921021776e+00  9.9933240765629106e-01  1.0001347414515320e+00  1.8571314550089417e-02  8.4781463706749927e-01  1.0005696997353513e+00  9.9593278234903349e-01  9.9980121060950644e-01  9.9640589359753107e-01  9.9985598386553731e-01  9.9553412085206328e-01  6.8442535763513757e-01  7.8323191870318998e-01  1.0094222297798883e+00  1.0005819692768814e+00  1.0000037684687868e+00  8.9972842274596121e-01  1.0041836485784423e+00  1.0001616828489193e+00  9.9968478131765959e-01  9.1420797039885127e-01  9.9488356642632392e-01  7.9995134570967574e-01  9.5305355119782598e-01  5.9888765235910002e-01  4.9463652115745327e-01  8.1877074948233419e-01  9.9610096685574212e-01  8.8911039412219250e-01  1.0003227171119353e+00  9.9192992043408035e-01  9.1781169800381834e-01  9.9995045242081104e-01  8.1051976713762364e-01  4.4535326004536208e-01  6.1464321080372997e-01  4.3008480106090918e-01  1.0087152061307778e+00  1.0000692073888344e+00  1.0001672907939962e+00  9.9966651636018700e-01  9.9960301606225888e-01  6.5758214045162861e-04  9.9971724831608955e-01  9.9968571216476965e-01  1.0002274167584828e+00  1.0000331449722060e+00  9.9987387251985083e-01  1.0000272329784559e+00  9.9994554787097878e-01  1.0006361392936380e+00  -1.3806672966018944e-02  1.0004042910986601e+00  1.0010170262853888e+00  9.9897847670695705e-01  1.0003154044554303e+00  9.9978045467716059e-01  9.9950722742261977e-01  9.9980781889481163e-01  1.0028921021799304e+00  9.9391420684635234e-01  9.9881515315977942e-01  1.0001491208212094e+00  1.0175774066237437e+00  1.0072584110422518e+00  9.8126524365417922e-01  1.0007378197163348e+00  1.0003054986948305e+00  9.6629794718111062e-01  1.0000136020996149e+00  1.0001130601761576e+00  1.0011978846401228e+00  9.9920456467353980e-01  8.4574314235156163e-03  9.9738267717903606e-01  9.9978382101970698e-01  9.9824230407689407e-01  9.6965615907113212e-01  9.9962393400242266e-01  1.0003547748181929e+00  1.0001424510534960e+00  9.7868308292460282e-01  1.0004502350714262e+00  1.0003001742881865e+00  1.0007284045971878e+00  1.0001226115805777e+00  1.0002858414547520e+00  1.0001118727154725e+00  9.9980688379871219e-01  1.0067790916389494e+00  1.0001631371477429e+00  9.9379771749200507e-01  1.0002694638853404e+00  1.0020405392616718e+00  7.6145449345367466e-01  9.4836432903929446e-01  9.9701305468253743e-01  5.9866043881928299e-01  2.2209590220939504e-01  9.5881191105623309e-01  1.0009953183548281e+00  9.6272146749252341e-01  7.0268884854609337e-01  1.0051723859128523e+00  9.9983982947699712e-01  6.7800354872153945e-01  7.9152572474668148e-01  1.0003257959251191e+00  1.0001456609513377e+00  1.0001933079503766e+00  6.9802936841239605e-01  9.5168172368182213e-01  9.9254013860582713e-01  9.9383607011082276e-01  8.1629834119532296e-01  9.8865668332252499e-01  6.9727971201088046e-01  7.6775348058965076e-01  6.2028474722615978e-01  9.9998501461644518e-01  1.0003045825485626e+00  1.0000642404498956e+00  1.0004405539666639e+00  1.0000247027242819e+00  1.0000210627609878e+00  1.0182031364296231e+00  1.0020345374568327e+00  9.9934391065066885e-01  1.0005380744919037e+00  1.0000824000111881e+00  9.9968536198882074e-01  1.0001079759450695e+00  1.0003269505650747e+00  1.0078811896834694e+00  1.0035166224063226e+00  9.8260868912075916e-01  1.0002408667066811e+00  1.0001507775645371e+00  1.0056688831046434e+00  1.0000326978073959e+00  1.0020865173152147e+00  1.0000997666089624e+00  9.4605915133724927e-01  9.3459843501297701e-01  9.9726340023926030e-01  1.0009852730282240e+00  9.9131020520280744e-01  9.7582739633008497e-01  9.2945284056757305e-01  9.1751717616903627e-01  7.6210826283056632e-01  5.6381137966898920e-01  9.6720684024285442e-01  6.8611531839454276e-01  9.2434090011728698e-01  6.3765545474458296e-01  9.9957619267627240e-01  1.0068618090907999e+00  1.0074578885590404e+00  1.0001436935105248e+00  9.9996959377507522e-01  9.6868588581752935e-01  9.9934186863703278e-01  9.7186716920628213e-01  9.8714869158211216e-01  1.0003760842500797e+00  9.0919605453046082e-01  7.4043491232158354e-01  1.0115357064175103e+00  9.8676552637579440e-01  4.5334892960776679e-01  4.9146797688247112e-01  4.7413462343665586e-01  9.6307679677688240e-01  9.9047614808433726e-01  1.7459601628000784e-01  1.6590969530957431e-01  1.6121546527505048e-01  1.8525562017251351e-01  1.7857493791788032e-01  2.3213902868102104e-01  2.0957840102844966e-01  2.3319631244550315e-01  1.7837253908128456e-01  3.1898208212008650e-01  3.2819666110522638e-01  2.7617962249532324e-01  3.2777983368018165e-01  3.0378102341222385e-01  3.3175211714476027e-01  3.4185590377299979e-01  2.1222456251942537e-01  4.4121580682085673e-02  2.1790253134159367e-03  -6.8492890384813383e-04  -1.0628552190092333e-04  -2.0128398106021122e-05  -5.3694360812382531e-06  -1.3770477725383849e-06  9.7927372835917056e-08  -3.8314615002479403e-07  1.0900955607928204e-07  3.9761253676535250e-06  -6.4481894129336620e-06  -9.5027060369884815e-05  -6.6470588844597469e-04  1.4744975875698890e-03  1.7977844129528654e-03  7.7971950053007692e-04  9.5820632993208173e-04  -1.8769275665469711e-04  -2.6909139318072745e-04  9.5085549000371999e-03  4.1942335461000067e-03  7.0332723729041573e-04  -4.9554456517636187e-04  -1.1223880498373202e-03  -7.0167961989178696e-03  1.4324992084827142e-02  1.2833077187239592e-01  4.3671650761234171e-01  6.5433326001064740e-01  7.0698827957734045e-01  6.6592396717441793e-01  5.7164295148508393e-01  5.6622051127685014e-01  5.9015479215034305e-01  6.7342400271457881e-01  7.9254316899713917e-01  5.5972710967867967e-01  5.0773358079801445e-01  7.3772446211121123e-01  5.9361989495630063e-01  4.7496729628796353e-01  2.9178353574702676e-01  2.3310960496557312e-01  3.2027144056596978e-02  -1.1995372544786040e-02  -4.1557353330972025e-04  -1.0450465194769313e-03  -2.9721584904734738e-03  1.4195899419812421e-03  -6.2269304847293021e-03