<?xml version="1.0"?>
<VTKFile type="UnstructuredGrid"  version="0.1"  >
<UnstructuredGrid>
<Piece  NumberOfPoints="2868" NumberOfCells="5400">
<Points>
<DataArray  type="Float64"  NumberOfComponents="3"  format="ascii">0.534923 0.326073 0  0.510642 0.314196 0  0.466125 0.293082 0  0.436448 0.281205 0  0.409468 0.275927 0  0.368998 0.270648 0  0.35281 0.275927 0  0.381139 0.302319 0  0.405421 0.326073 0  0.410817 0.33531 0  0.408119 0.349826 0  0.400025 0.357744 0  0.375743 0.368301 0  0.329878 0.392055 0  0.297502 0.432963 0  0.282663 0.476511 0  0.285361 0.524018 0  0.298851 0.572845 0  0.317737 0.6045160000000001 0  0.337972 0.6361869999999999 0  0.360904 0.674457 0  0.368998 0.69953 0  0.359555 0.7219640000000001 0  0.360904 0.757594 0  0.370347 0.766831 0  0.381139 0.762872 0  0.390582 0.741758 0  0.404072 0.720644 0  0.424307 0.707448 0  0.447239 0.702169 0  0.480964 0.704808 0  0.479615 0.6889729999999999 0  0.468823 0.675776 0  0.447239 0.6691780000000001 0  0.428354 0.6691780000000001 0  0.410817 0.6639 0  0.404072 0.653343 0  0.395978 0.628269 0  0.387884 0.59132 0  0.389233 0.576804 0  0.397327 0.557009 0  0.410817 0.547772 0  0.424307 0.546452 0  0.437797 0.55305 0  0.44589 0.5662469999999999 0  0.441843 0.582082 0  0.439145 0.5979179999999999 0  0.449937 0.609795 0  0.468823 0.603196 0  0.479615 0.59 0  0.489058 0.570205 0  0.494454 0.546452 0  0.505246 0.522699 0  0.522783 0.509502 0  0.55246 0.494986 0  0.586185 0.484429 0  0.615863 0.48047 0  0.64554 0.473872 0  0.6671240000000001 0.461995 0  0.683312 0.451438 0  0.696802 0.435603 0  0.703547 0.417128 0  0.7116400000000001 0.393374 0  0.7183850000000001 0.37226 0  0.7251300000000001 0.364342 0  0.739969 0.353785 0  0.7453650000000001 0.344548 0  0.7453650000000001 0.327393 0  0.737271 0.318155 0  0.7183850000000001 0.316835 0  0.7008490000000001 0.319475 0  0.677916 0.318155 0  0.650936 0.316835 0  0.610467 0.318155 0  0.57944 0.324753 0  0.559205 0.328712 0  0.5389699999999999 0.326073 0  1 1 0  1 0 0  0 0 0  0 1 0  0.532238 0.32476 0  0.528748 0.323052 0  0.52421 0.320833 0  0.518311 0.317947 0  0.503447 0.310783 0  0.494093 0.306347 0  0.481933 0.30058 0  0.452151 0.28749 0  0.392327 0.273691 0  0.379141 0.271971 0  0.360474 0.283066 0  0.369797 0.291752 0  0.391424 0.31238 0  0.399335 0.32012 0  0.40958 0.341964 0  0.393939 0.36039 0  0.386028 0.36383 0  0.364248 0.374254 0  0.349304 0.381994 0  0.315801 0.409841 0  0.292986 0.551616 0  0.350934 0.657818 0  0.360127 0.737055 0  0.360566 0.748664 0  0.385245 0.753692 0  0.396447 0.732578 0  0.466301 0.703661 0  0.459439 0.672908 0  0.418442 0.666195 0  0.400553 0.642441 0  0.39255 0.612619 0  0.389913 0.60058 0  0.392752 0.568197 0  0.444131 0.573132 0  0.458149 0.606926 0  0.5005540000000001 0.533026 0  0.571522 0.489019 0  0.632637 0.476741 0  0.689177 0.444553 0  0.708121 0.403702 0  0.715453 0.38144 0  0.732406 0.359166 0  0.7453650000000001 0.337089 0  0.72906 0.317581 0  0.629879 0.317522 0  0.59293 0.321884 0  0.568003 0.326991 0  0.55202 0.327775 0  0.546493 0.327054 0  0.542241 0.326499 0  1 0.9 0  1 0.8 0  1 0.7 0  1 0.6 0  1 0.5 0  1 0.4 0  1 0.3 0  1 0.2 0  1 0.1 0  0.9 0 0  0.8 0 0  0.7 0 0  0.6 0 0  0.5 0 0  0.4 0 0  0.3 0 0  0.2 0 0  0.1 0 0  0.1 1 0  0.2 1 0  0.3 1 0  0.4 1 0  0.5 1 0  0.6 1 0  0.7 1 0  0.8 1 0  0.9 1 0  0 0.1 0  0 0.2 0  0 0.3 0  0 0.4 0  0 0.5 0  0 0.6 0  0 0.7 0  0 0.8 0  0 0.9 0  0.535686 0.5031910000000001 0  0.753987 0.733359 0  0.167145 0.741436 0  0.173378 0.257204 0  0.733497 0.159862 0  0.554096 0.15788 0  0.849187 0.479053 0  0.488793 0.838452 0  0.138507 0.5592 0  0.30686 0.154944 0  0.348904 0.890523 0  0.058006 0.065099 0  0.06984899999999999 0.937917 0  0.93633 0.939704 0  0.934625 0.053613 0  0.343397 0.333452 0  0.473272 0.639943 0  0.433266 0.638072 0  0.415174 0.58269 0  0.533435 0.545042 0  0.390848 0.340652 0  0.53655 0.320242 0  0.127966 0.393775 0  0.83861 0.850455 0  0.635242 0.8551299999999999 0  0.852158 0.633441 0  0.653427 0.626848 0  0.861226 0.24292 0  0.166128 0.12976 0  0.216875 0.8698709999999999 0  0.458305 0.11179 0  0.84446 0.101633 0  0.202024 0.642528 0  0.644825 0.115855 0  0.671342 0.218358 0  0.251354 0.286186 0  0.262388 0.75153 0  0.063044 0.751571 0  0.068189 0.242962 0  0.435781 0.9053949999999999 0  0.934144 0.451133 0  0.568393 0.237622 0  0.814984 0.395506 0  0.752951 0.517227 0  0.456254 0.780699 0  0.073352 0.531116 0  0.337731 0.206071 0  0.363213 0.960371 0  0.330742 0.363592 0  0.516613 0.55705 0  0.369057 0.332992 0  0.500926 0.617309 0  0.498004 0.665534 0  0.412142 0.61178 0  0.454233 0.6366039999999999 0  0.422782 0.567496 0  0.541193 0.5214800000000001 0  0.439761 0.65557 0  0.5163 0.533672 0  0.414775 0.64562 0  0.40073 0.576135 0  0.430362 0.5880339999999999 0  0.385432 0.351492 0  0.400298 0.335397 0  0.398325 0.348194 0  0.528702 0.314885 0  0.540814 0.322334 0  0.534477 0.322953 0  0.619095 0.743583 0  0.885162 0.737972 0  0.08076 0.668849 0  0.90734 0.36634 0  0.09468699999999999 0.868937 0  0.759838 0.912152 0  0.901518 0.540898 0  0.747285 0.607479 0  0.229182 0.071641 0  0.06915399999999999 0.450091 0  0.244775 0.203309 0  0.076534 0.331755 0  0.897847 0.167826 0  0.578909 0.911415 0  0.07713299999999999 0.146341 0  0.477215 0.203448 0  0.922631 0.869341 0  0.517415 0.074785 0  0.297026 0.827793 0  0.7832710000000001 0.246505 0  0.74519 0.061079 0  0.36033 0.069068 0  0.210313 0.475228 0  0.859426 0.928758 0  0.5745479999999999 0.609182 0  0.243069 0.383398 0  0.283099 0.934598 0  0.417416 0.843141 0  0.643942 0.553164 0  0.112687 0.079336 0  0.281357 0.658386 0  0.765043 0.436177 0  0.611361 0.198486 0  0.234496 0.58911 0  0.206479 0.702638 0  0.679608 0.155818 0  0.62682 0.259978 0  0.690538 0.264164 0  0.448938 0.956308 0  0.808154 0.328403 0  0.379583 0.91913 0  0.308083 0.297769 0  0.312358 0.730249 0  0.563101 0.278576 0  0.435597 0.746198 0  0.385475 0.225229 0  0.572248 0.518034 0  0.357864 0.35422 0  0.497647 0.641694 0  0.458101 0.655768 0  0.360474 0.310727 0  0.467038 0.620139 0  0.47798 0.659909 0  0.41102 0.628072 0  0.48324 0.609015 0  0.427544 0.617941 0  0.388633 0.328253 0  0.405336 0.599404 0  0.408351 0.565178 0  0.42395 0.600985 0  0.431562 0.576523 0  0.424905 0.6551979999999999 0  0.398064 0.58782 0  0.427739 0.557934 0  0.5192909999999999 0.303443 0  0.53142 0.320293 0  0.5449000000000001 0.323642 0  0.537166 0.323513 0  0.153974 0.920841 0  0.9181859999999999 0.67343 0  0.759946 0.820588 0  0.5375259999999999 0.783091 0  0.816532 0.545843 0  0.813991 0.178083 0  0.836774 0.702023 0  0.149815 0.318856 0  0.662287 0.923338 0  0.680146 0.791192 0  0.708961 0.663172 0  0.9372779999999999 0.287318 0  0.574622 0.6881660000000001 0  0.5894740000000001 0.076262 0  0.502822 0.926683 0  0.222269 0.811068 0  0.380457 0.164786 0  0.15321 0.684154 0  0.458063 0.051413 0  0.161702 0.056026 0  0.199351 0.198818 0  0.298946 0.09553200000000001 0  0.902465 0.795949 0  0.121139 0.791477 0  0.906269 0.112287 0  0.056109 0.822332 0  0.512172 0.13237 0  0.940964 0.741805 0  0.888887 0.408777 0  0.354543 0.825964 0  0.808736 0.068638 0  0.068507 0.394071 0  0.719105 0.563843 0  0.247287 0.149664 0  0.293062 0.237128 0  0.240524 0.434997 0  0.141255 0.623289 0  0.945202 0.160621 0  0.502914 0.247629 0  0.144669 0.480811 0  0.665025 0.060817 0  0.728047 0.224344 0  0.861995 0.313312 0  0.200068 0.534235 0  0.253262 0.965623 0  0.893804 0.49307 0  0.604391 0.572456 0  0.947088 0.345347 0  0.439372 0.227307 0  0.629847 0.159823 0  0.273405 0.880181 0  0.302744 0.776823 0  0.781502 0.295365 0  0.275342 0.349602 0  0.7283849999999999 0.472798 0  0.229136 0.246478 0  0.807794 0.480346 0  0.709476 0.112786 0  0.275506 0.694991 0  0.771674 0.394419 0  0.449715 0.861802 0  0.419159 0.799696 0  0.674851 0.503139 0  0.280443 0.61016 0  0.572443 0.192538 0  0.393113 0.87525 0  0.405555 0.948428 0  0.330942 0.934103 0  0.540509 0.597101 0  0.312763 0.6689310000000001 0  0.254368 0.540179 0  0.595265 0.25915 0  0.606679 0.234099 0  0.657131 0.279138 0  0.722458 0.279478 0  0.333 0.308056 0  0.351529 0.246142 0  0.455714 0.7257940000000001 0  0.585239 0.295143 0  0.340062 0.72492 0  0.545593 0.293773 0  0.555449 0.545426 0  0.414311 0.737314 0  0.590854 0.502323 0  0.350507 0.368444 0  0.484423 0.625665 0  0.483899 0.674542 0  0.378137 0.317274 0  0.446416 0.646404 0  0.373532 0.347654 0  0.446876 0.619769 0  0.466106 0.666068 0  0.437545 0.609254 0  0.434988 0.565726 0  0.41462 0.656829 0  0.418803 0.556961 0  0.398425 0.327446 0  0.517803 0.310421 0  0.549516 0.322918 0  0.57701 0.842889 0  0.8291269999999999 0.773906 0  0.643235 0.684732 0  0.134281 0.207734 0  0.865997 0.055966 0  0.680959 0.723345 0  0.165229 0.8415550000000001 0  0.54558 0.959672 0  0.783726 0.656439 0  0.913315 0.595533 0  0.699439 0.860667 0  0.785839 0.125076 0  0.551673 0.037713 0  0.9200970000000001 0.223214 0  0.206406 0.299726 0  0.087064 0.596401 0  0.935644 0.394252 0  0.964557 0.252582 0  0.230124 0.928346 0  0.120579 0.271764 0  0.8572149999999999 0.524082 0  0.7670979999999999 0.5551469999999999 0  0.936094 0.507131 0  0.804064 0.59585 0  0.700565 0.608273 0  0.429773 0.174231 0  0.117746 0.727333 0  0.5389620000000001 0.730231 0  0.862761 0.359173 0  0.821444 0.284046 0  0.193552 0.35818 0  0.234923 0.505555 0  0.193209 0.421217 0  0.220144 0.755896 0  0.594015 0.131642 0  0.283813 0.195855 0  0.517519 0.213961 0  0.553509 0.639116 0  0.280391 0.378018 0  0.852183 0.436817 0  0.746983 0.197173 0  0.821806 0.221318 0  0.449853 0.828453 0  0.883758 0.453926 0  0.183484 0.589542 0  0.348384 0.129314 0  0.255254 0.838525 0  0.504849 0.798516 0  0.320344 0.863432 0  0.611669 0.525425 0  0.265864 0.804962 0  0.72056 0.521442 0  0.613372 0.6101220000000001 0  0.481262 0.881068 0  0.655778 0.191988 0  0.701921 0.196918 0  0.5658260000000001 0.5731810000000001 0  0.46914 0.240927 0  0.343219 0.173284 0  0.888786 0.278502 0  0.244113 0.6750930000000001 0  0.739546 0.417914 0  0.784023 0.355942 0  0.326805 0.265549 0  0.248616 0.6
[...]
<PointData  Scalars="u"> 
<DataArray  type="Float64"  Name="u"  format="ascii">3.8333177693426485e-04  2.0123767253212195e-04  -2.5933201570755942e-02  -2.6999671364759052e-02  -1.2341714789594362e-01  -2.5324609116068597e-02  -3.2507824381782631e-02  -4.1190961807729693e-04  1.3764341399414955e-07  5.6029735151567028e-08  -3.5948670205874388e-09  -1.4272971586753334e-08  -7.8928155453897944e-06  1.6604529077908159e-04  9.3903852257155512e-05  -4.7908015065947384e-06  1.0838685244392184e-04  -5.1983215489693623e-04  -1.0656812887874186e-03  -2.9021391522235926e-04  -1.0432471204631675e-04  -3.0495495574053144e-05  -2.0115735447123577e-03  8.9450940698569334e-03  2.2732865657069046e-02  -8.2135818023058096e-03  -6.9442860605531823e-03  -3.0874815923759270e-02  -5.8718222724365781e-03  -1.7244116298018562e-02  3.9507353875048633e-02  -1.1220022144411293e-02  -3.1572422372774687e-03  3.1961300741714541e-04  -4.9673745130424719e-05  -2.3974952799761831e-08  -4.2811873175003137e-08  -7.8007348337774896e-07  -1.1757391904352401e-09  -1.9525581671099329e-10  5.9690736284304400e-13  3.2341609959263888e-11  -6.0983118912052614e-12  2.3093334242253088e-12  -4.1371547510319007e-11  1.5374964645146165e-07  3.0704607057449902e-06  2.4655299923257240e-05  1.4572365620999604e-04  -1.3209064077442339e-03  3.0746198758567717e-05  -1.3401689072577829e-03  -8.3633210439201452e-04  1.6116285979712076e-03  -5.7318910543568101e-03  -8.0555787462764386e-02  1.7489813050320951e-01  3.3498636906781704e-02  2.3942543014641476e-01  2.4240999035732982e-01  -9.4860048021669385e-04  -1.5817064496517406e-02  -2.8956212320886396e-02  4.8969157979414915e-03  3.0591924902292806e-02  2.6475702105057186e-01  3.3804652278322062e-01  4.9702093514706158e-01  5.7518894838049828e-01  4.3810325689056151e-01  3.5659920333310979e-01  4.2358736993786028e-01  4.2089291485711305e-01  2.0318677654818262e-01  2.8639091229717396e-02  -8.1157222262895042e-04  6.4899681599684257e-04  1.0000000000000000e+00  1.0000000000000000e+00  2.5158350372492921e-02  -3.0196951045390677e-02  5.4727367172457714e-04  4.0397591985209201e-04  1.8210092345383329e-04  5.3345810046238559e-04  3.2181084339838196e-05  -3.0100770372302583e-03  -5.4772711231962541e-03  -3.5009323091993075e-02  -5.0771986141188191e-02  -3.6854737999383193e-02  -1.4772990494910793e-02  -1.4488929886882073e-03  1.0191616491859870e-05  1.5077754259399883e-06  -1.4386093510429673e-09  -5.2309029917937276e-08  3.4390574100433339e-07  -2.1050518309871729e-07  1.6197299305639422e-04  9.6589478065396657e-05  4.2104383263885930e-04  -5.0334147541790813e-05  -5.6918072165277967e-03  -7.9045284350340167e-03  -8.7749723178863655e-03  -9.2345322335430184e-03  -1.9006564397565588e-02  7.1140257407386351e-04  -3.8886526508967814e-06  3.5456435213242733e-07  -1.6467380213320567e-10  4.1645617109961607e-08  1.4492016511765036e-11  -8.9904259214262440e-11  -2.4946291455983247e-05  -2.3131755737889186e-04  -2.6040049236969738e-02  6.7985991149996178e-02  9.9275446451787014e-02  -1.1667815699683268e-02  -7.8633025366460288e-03  1.3490313509754945e-01  3.0778806024896616e-01  4.6675350923308728e-01  2.8558606596909586e-01  1.2144173925588936e-01  -1.5479926850581773e-02  2.7620012473081123e-04  6.3613767839070402e-04  9.7636077241697750e-04  1.0000000000000000e+00  1.0000000000000000e+00  1.0000000000000000e+00  1.0000000000000000e+00  1.0000000000000000e+00  1.0000000000000000e+00  1.0000000000000000e+00  1.0000000000000000e+00  1.0000000000000000e+00  9.4749442984807541e-01  1.0042470495412426e+00  1.0139492801325971e+00  8.8070722064985363e-01  2.0026616296417227e-01  7.2784089526628640e-02  2.9326006862069473e-02  -1.0553453126253731e-01  -5.2525726545933571e-02  -1.2398585839751707e-01  9.1207232515678360e-02  5.9625060367897909e-01  8.2298931544795151e-01  5.5140183028302525e-01  9.8669040124838825e-01  1.0063576677243564e+00  1.0576568570936884e+00  -2.0241683284396916e-01  2.9924591934656614e-01  6.8048058689587021e-01  6.4483566935184655e-01  6.4765168712932975e-02  -3.1467629294966930e-02  5.5517887167246860e-01  8.1709752066851160e-01  8.8332743038331096e-01  5.6482457543479392e-01  4.2427578678460283e-03  9.9915712937236167e-01  9.9984132464901809e-01  9.2104955472017769e-01  9.8746787395091751e-01  9.8723642781923671e-01  9.9968008912663520e-01  9.9062095681242990e-01  5.6654073379110735e-02  1.0202826869756438e+00  9.9538790882768435e-01  2.1440428657121421e-01  4.4715648931263025e-01  1.0099308316488083e+00  9.8998490635550151e-01  1.1050581970775055e-03  1.1870403823549957e-02  -7.2991272936765469e-04  -2.4127174694588041e-08  3.6683644857065760e-02  1.0791051735954244e-07  4.4804592741925194e-03  1.4580216401000806e-01  9.9986690449033233e-01  1.0107687602589615e+00  9.9960685773407176e-01  9.9170048326673621e-01  1.0014555641519178e+00  9.4613742949620383e-01  1.0276867863952130e+00  9.8864911917953291e-01  9.9965490618186026e-01  5.3274645865515335e-01  1.0124096231100619e+00  1.0015206666384671e+00  7.3633084239024116e-01  9.2264294437194672e-01  9.7461833420453403e-01  7.8496259474530117e-01  9.9038211224820760e-01  1.0000338955462729e+00  1.0120068847882777e+00  9.9501809722208467e-01  1.0088779330117150e+00  1.0133316378312580e+00  -2.3161941232787450e-03  1.0063366256167674e+00  1.0058656024622510e+00  1.0809029679367101e-03  -8.4762293998223767e-03  7.5128497327812724e-05  1.2536774294228445e-01  3.2978453575493782e-01  -5.2850679234918401e-06  -3.7802409002655160e-03  1.9372828911603049e-09  -2.0897974616012317e-02  -1.0030522723506235e-04  2.0070000196263493e-03  -1.0150479936783761e-06  1.3936033201577094e-09  4.3928387685575969e-08  -2.8439627915611228e-07  2.8225871901685412e-08  7.9751670138846457e-09  9.1247138079648717e-03  3.0552300877958434e-03  1.1516511455883051e-03  1.0040478765484584e+00  1.0013849303847069e+00  7.9209671285622474e-01  9.9907273718459899e-01  9.6625300596617991e-01  9.9932520284511028e-01  1.0031595991637663e+00  9.9344687207661608e-01  8.0506670068709441e-01  -1.7027063062412672e-03  1.0224859795395749e+00  6.1370392994329925e-01  1.0008210406635640e+00  9.8458241373505961e-01  7.6718436645986765e-01  1.0174088761627320e+00  9.9994488640174761e-01  1.0391950260024241e+00  1.0231055592279354e+00  9.9810830505976345e-01  1.0061382648430646e+00  9.9397294698671379e-01  5.3868912069775557e-04  1.0143356291847001e+00  9.7842104065930302e-01  1.1313307466130648e-02  1.0623802160205151e+00  1.0018374452412995e+00  1.0295924486947130e+00  5.2011621126089647e-01  1.1295788787972068e-01  9.9662135546673425e-01  9.9241280406633070e-01  -2.3473411206287525e-02  8.3759443190846739e-01  1.0116266078143974e+00  1.0194605984615792e+00  9.9433317919981568e-01  9.9999631808807188e-01  9.9837702245554516e-01  1.0093691273684844e+00  2.6347665563897821e-01  4.3604339111388951e-01  9.0159564268018477e-01  5.2512046637199072e-01  8.9800122503740654e-01  2.3221258456462868e-01  1.1792220109556959e-04  2.3111767451154341e-01  -7.8386305993516266e-03  4.1608193212219123e-04  -1.9490636101322850e-03  4.6367781226275627e-02  -2.1678762641659403e-05  -2.5519060449739690e-03  -5.4955128710104625e-05  1.1384863811535851e-06  8.2668828534452467e-08  5.8338424902667655e-10  -7.4032064216736212e-07  -4.9955346240655947e-10  2.8608858288314628e-05  1.8974928641239906e-09  1.8591657472684897e-12  7.3217555901505610e-02  1.9875763045728544e-03  3.3229273052003110e-03  1.2033874668660820e-03  9.3909977202891304e-01  1.0000139476469008e+00  9.9691471089833006e-01  9.9117814614247013e-01  1.0010732326772849e+00  1.0035313833867343e+00  9.9941676171177340e-01  6.8304554255486805e-01  9.8806421694469582e-01  1.0001727254219035e+00  9.9861234692000611e-01  9.9993260993705979e-01  1.0135562020117004e+00  9.8686796319759762e-01  1.0143101904482970e+00  1.0316021575461380e+00  1.0120136836354663e+00  8.3000048450316000e-01  9.6822909841905413e-01  4.6141594087099763e-01  1.0084173518784911e+00  1.0637558890455037e+00  1.0000143898107408e+00  1.0127320248269767e+00  9.9885013558046476e-01  9.6806761295261179e-01  9.9352740479049839e-01  1.0000478868006284e+00  9.9994239127504803e-01  1.0246718994114581e+00  9.9703436458942485e-01  1.4188824125436797e-01  1.0119256292928496e+00  1.0370481875028921e+00  9.2307094941592427e-01  5.7642851491643287e-04  5.7438745016800752e-01  1.0005177159870529e+00  9.7197150048623548e-01  4.9678911128031925e-03  9.9085207670187214e-01  1.0022474741681615e+00  1.0012825986147378e+00  -1.0226056322539223e-02  8.6363915999143481e-01  9.9943945151164315e-01  1.0057247759623957e+00  1.0000492725098442e+00  9.7615366460079045e-01  1.0102565900539939e+00  1.0099694347472241e+00  9.2516428272549822e-01  1.0111274149067047e+00  7.8337085146983260e-02  1.0102186422364123e+00  9.5266014086101380e-01  9.9846959470816909e-01  1.0028803972162750e+00  4.9324868071767480e-01  9.9100116587820131e-01  9.9466351964066368e-01  1.0110910737444536e+00  1.0072802468061031e+00  -6.9184638260562170e-03  9.8788674335531290e-01  9.9727636486657933e-01  1.0292106210839180e+00  1.0624075411643603e+00  5.6031908245719342e-01  6.7485914611356756e-03  7.8093748383731789e-05  1.0269671896483104e+00  9.9698025638854171e-01  1.0136824126632993e+00  9.9888702427288856e-01  -4.6025772732499123e-03  5.3515578409216602e-01  3.3295120863672317e-01  7.4088850312927468e-01  2.5772731892659245e-02  5.8401673195963955e-01  3.3128133616208205e-01  1.9008499108062618e-01  2.8775925075789638e-01  4.8957459101412925e-05  1.9283855182456733e-02  8.7655930942757782e-02  3.0707241214238412e-05  -3.2224902197746964e-03  -2.7216295893222948e-06  6.4686930263410531e-05  -2.7041173685806935e-03  3.0719867488739237e-05  -1.0905380358392522e-10  5.3503494103436018e-07  -5.5189774234015733e-11  4.5780920727581005e-07  7.2844597195150726e-03  6.7977286386668567e-03  9.9648578165306301e-01  1.0022765123197130e+00  9.9934148848572291e-01  9.5618716080902511e-01  1.0035221734086803e+00  1.0022796297870789e+00  1.0251650778609485e+00  1.0093875529510896e+00  1.0024012923365284e+00  1.0001571475532396e+00  1.0068123570902421e+00  9.9734431935178869e-01  9.5954927217579300e-01  1.0016649789339791e+00  7.3662927449840043e-01  4.7747720074308747e-01  9.9994521464270436e-01  1.0024125096789029e+00  1.0731792519008707e+00  8.2341861706163300e-01  1.0004784503369857e+00  9.9309072411749744e-01  9.9993137667849508e-01  1.0025233279658885e+00  1.0097040676300058e+00  1.0053543469761872e+00  9.7065883638587169e-01  1.0219307902810879e+00  1.0018510961137659e+00  9.9848621156781270e-01  4.0224996847254596e-01  -5.0715421605226777e-04  -6.1878201894445478e-03  1.0019847977691982e+00  9.9413750788728616e-01  1.0355964215657774e+00  1.0106167500452496e+00  9.3267973372842738e-01  -4.6130075682466300e-03  1.0014104811500051e+00  9.8744271883892465e-01  1.0029481619243086e+00  1.0015349398273998e+00  9.9996553612194583e-01  1.6556699009386766e-01  1.0108143674835481e+00  1.0220700719980667e+00  9.9700357318668875e-01  1.0044681439721612e+00  7.7399999350066473e-01  1.0296097239470752e+00  9.9392285044830531e-01  1.0139233183373986e+00  9.9072097824953298e-01  1.0148953235085207e+00  1.0040378462234301e+00  7.0516598900036231e-01  9.3396691876237548e-01  1.0274099149142055e+00  9.9687083008953337e-01  5.5709008054471587e-01  9.3596548726230833e-01  9.9033284327735793e-01  4.1531354944712806e-01  1.7795004020307847e-01  1.0073405177349297e+00  1.0075821211071243e+00  6.4168008189630213e-02  9.1160284543717107e-01  9.9164400056149504e-01  1.0221184235510008e+00  -2.7398106989754258e-03  9.8309860697106366e-01  1.0085368876128669e+00  9.8955776893003633e-01  1.0062954356329163e+00  1.0867060553671573e-03  9.9036488285182656e-01  9.9619959708337680e-01  -2.0316989822254786e-05  2.0033962235102166e-03  8.4320084504785975e-01  9.9748827071234059e-01  5.0137178717340158e-01  3.7383348486031664e-01  6.7733956466983747e-01  6.3568689813202117e-01  6.7412794566801371e-01  9.6092154429438503e-01  4.3726180381716002e-02  8.7527883774643167e-01  1.0027367831776242e+00  3.9394958380049150e-01  9.9405695469629740e-01  8.1004544554921487e-01  6.9174478637674086e-01  6.7754598573119762e-01  9.9574219182658630e-01  8.8556479204478689e-01  4.6820017343055276e-01  1.0291401420129618e+00  4.7789428144456925e-01  9.8791931813005529e-01  1.1909336285106134e-01  3.0060617326296590e-01  -1.9667089442320283e-02  6.7342532927321314e-02  1.1868508054193791e-01  4.0647839507167643e-01  -3.2451960610054124e-06  2.0116945653995030e-01  3.5822412487380345e-06  4.1040544626492264e-03  1.0010678626318004e+00  1.0075822324438990e+00  9.9820580185598418e-01  9.8666112064957490e-01  9.9926752916210226e-01  1.0271930882591673e+00  9.8879723051642565e-01  9.8975796340400934e-01  9.8783641244846365e-01  9.8896571921002374e-01  1.0031514966938557e+00  1.0154902716227661e+00  1.0092269741701405e+00  4.5630779608305705e-01  9.9622915125610167e-01  9.9824589870083591e-01  9.9685535239300704e-01  9.9097510843637904e-01  9.9212465427835528e-01  8.4729760693224554e-01  1.0008272246370216e+00  1.0221540692598790e+00  9.9461288344816168e-01  1.0077405290829127e+00  1.3225342302376798e-05  1.0005831501740987e+00  1.0011967741805186e+00  7.9736061768358790e-01  9.9472834581405700e-01  1.0014905075338127e+00  9.9580291590568715e-01  1.2357249499385899e-03  9.9766947008436180e-01  4.6642287485063799e-01  1.0139611494208158e+00  1.0208813014394735e+00  9.9995915695098403e-01  9.9277060729189481e-01  9.9992106162333250e-01  9.9941206121939430e-01  1.0334308036237501e+00  1.0181910441466280e+00  9.9593779243673219e-01  1.0247375385049375e+00  8.4654149328270023e-01  8.8304544173625921e-01  1.0160935183336066e+00  9.9213481984021135e-01  9.9693304910947633e-01  4.1862257474214148e-01  6.4901543284428131e-01  9.9201428765987087e-01  5.4142873340742470e-01  1.0084617241629998e+00  -1.1584125631174343e-02  9.9852141185266308e-01  9.8721224590564438e-01  2.5468569498412341e-01  6.8143421859850961e-01  1.0058583113638440e+00  1.0173836155034035e+00  1.0067448577264688e+00  1.0136846804369783e+00  1.3926220832519392e-04  9.9235930508022141e-01  1.0080156298992127e+00  9.6618615365224003e-01  3.2415038332338475e-01  1.9270435958459978e-01  9.8580452650635075e-01  1.0025242525484523e+00  1.0141613133019405e+00  -2.4546722452055865e-03  4.0105585890503964e-01  7.7765588333173097e-01  7.2441866929047594e-01  9.9541437788559262e-01  7.9707861516435208e-01  9.9412339404491235e-01  5.9658606389813174e-01  1.5523347312338928e-01  1.7164219851171106e-01  6.1183686229045331e-01  8.3376253030936698e-01  9.4778521010147698e-01  3.0685984223291651e-01  6.6898927064621838e-01  1.0106631978794325e+00  9.7576825662471589e-01  1.4799874474201613e-01  8.0322125016948753e-01  1.7475001590546266e-01  5.9875958273180785e-01  4.7035789074287342e-02  -6.1227032029159542e-03  2.4279553138049367e-01  8.9010542796249481e-01  2.1702488204957615e-01  7.4375482455590358e-01  7.9872805006427727e-01  2.6385448819303525e-01  6.7909460154797474e-01  1.0408948042076052e-01  1.4421994204041725e-02  4.6125888096978061e-02  1.0211647506455077e-02  1.0466005453766203e+00  1.0022994154826936e+00  9.9175987550679412e-01  1.0040846125181664e+00  9.9352356521449992e-01  5.9212441443147941e-05  9.9641664081612946e-01  1.0177878983406119e+00  9.4131460397402211e-01  9.9945172178685193e-01  9.9642803450777995e-01  1.0063113926921856e+00  9.9859616332338696e-01  1.0017767133770097e+00  2.7124643427140974e-04  1.0269830057337248e+00  6.1465917834905304e-01  9.9788991431911689e-01  1.0229684362730851e+00  6.7909205010097207e-01  1.0022476131590397e+00  9.9605393070626957e-01  9.7674565924420986e-01  6.6775467877699102e-01  1.0230897259483613e+00  7.6983504868376573e-01  8.2120822554147399e-01  3.8863451474793925e-01  3.4676032316659683e-01  1.0031314749906515e+00  1.0073541211970198e+00  3.6662977036712752e-01  1.0076130415524904e+00  9.9603334397530674e-01  1.0218469379493322e+00  1.0010640496040575e+00  7.2630935224988439e-04  9.9229580142185614e-01  1.0060830220464911e+00  8.7301088554621453e-01  4.4975827282644693e-01  1.0079997213039913e+00  1.0223752618965463e+00  1.0087608725561963e+00  2.4511484306735681e-01  1.0234282406389048e+00  1.0266828364451357e+00  5.6291175239165792e-01  8.5399942834242026e-01  9.9062340072309940e-01  1.0089100468862340e+00  1.0045548023815509e+00  5.8924467025527372e-01  9.3960756455685901e-01  8.1286756687116002e-01  9.8515163924764471e-01  9.6979601624805645e-01  1.4664040818521618e-01  2.8261594886813457e-01  4.2473429908325949e-01  1.2465769023430354e-01  -3.3390701300413785e-04  5.5819244159098436e-01  7.9223119348168647e-01  5.4267612424562672e-01  1.1928592345444484e-01  4.6682899345347451e-01  1.0002865878422984e+00  1.3127916429124317e-01  1.3557047216479467e-02  1.0059784283622608e+00  9.9408883360118827e-01  9.9670657245765582e-01  8.3851529023099516e-02  2.9659377017287009e-01  8.2026351632843331e-01  5.5017000922026160e-01  1.4619414094831701e-01  4.5272068138859456e-01  7.3918240179388334e-02  1.0715811351762136e-01  6.5790102140863033e-02  9.9657674262951834e-01  1.0259569902758632e+00  9.9723028216524723e-01  1.0225195211207827e+00  9.7821543431467672e-01  9.2019727842552634e-01  7.0515896807025547e-01  5.6989525226338589e-01  1.0124372785042723e+00  8.2953160287383443e-01  9.9359354020177859e-01  1.0076108531273535e+00  1.0078475150657478e+00  1.0082327274529701e+00  6.3602209286279066e-01  7.2136182572731244e-01  6.2865304172069769e-01  7.9247730663201688e-01  8.3293325375572491e-01  6.5547618741224989e-01  1.0159465160426908e+00  2.9915333839189229e-01  9.9299455047370233e-01  6.5973950398072456e-01  1.7689890656325696e-01  4.6740821506911417e-01  8.2592651094344727e-01  7.6936187089680785e-01  5.9538062571582895e-01  2.5737402817394145e-01  2.3712187684928959e-01  1.5934833975859605e-01  4.9022669431302589e-02  3.5130018856987999e-01  7.2044097676041835e-02  2.7691623537775201e-01  5.5168491300904093e-02  1.0031490154328038e+00  6.2134763730456033e-01  4.2851287522512843e-01  8.6301673658319800e-01  9.9299949693017908e-01  3.3300390642339617e-01  8.9824361525525320e-01  2.6475020235370084e-01  7.3613824350036006e-01  6.5761110941917067e-01  2.2121939643373514e-01  4.1739624197603520e-02  5.1082438013520592e-01  6.9966253439234871e-01  1.7956307626839176e-02  2.2200031154744379e-02  1.8016889297496137e-02  2.7341928737091553e-01  4.5896410183082609e-01  5.2239460825285338e-04  4.4146431934013975e-04  2.8549836798157454e-04  6.2600834163732580e-04  3.5534915749754563e-04  4.7651774213104117e-04  -2.2335326675163667e-03  -2.8557598953968637e-03  -1.3659491466530116e-02  -1.9340918559054048e-02  -3.7101523563544930e-02  -5.0502407433910386e-02  -8.6196919373997524e-02  -5.1925652590768846e-02  -3.5056877713845261e-02  -2.8410282329937593e-02  -2.2076028790551223e-02  -5.2594470311227897e-03  -6.1306121411272021e-04  3.8346577454200466e-05  3.6609183910811541e-06  4.9694468562156649e-07  9.5332534400890041e-08  6.9599753296711319e-09  -4.9050757852958200e-09  4.0959280766288780e-09  -2.1829366377807423e-08  -3.4404074604071200e-08  6.4873207422884270e-07  -1.2757578077315264e-05  -6.4419752590630394e-05  2.2962198781536731e-05  5.5082396113192674e-05  5.2512464281460528e-05  -1.7102640303222856e-06  1.8727339239695727e-05  6.5013053049205310e-05  -2.4189958876083626e-04  -7.2245017560560679e-04  -4.9760917817311774e-04  -8.0554240615439616e-05  -1.5863659065206668e-04  6.8698940784790729e-04  6.5146590372972395e-05  -1.3942887305265494e-03  -1.2635933416307957e-02  -3.3899043319887056e-03  4.6157958355911907e-03  -1.8553799379389446e-02  -1.3968642964625298e-02  -5.0542146146966812e-03  -6.7710067558293188e-03  -1.1750214967530721e-03  2.5073286532011380e-02  -1.7841282184901792e-02  -3.5881850179217037e-02  -1.1821706650453352e-02  -2.3875990465582909e-02  -7.5571469452572386e-03  7.3202204397003468e-04  2.6054461582289499e-04  -1.2350139972853026e-04  3.1244957476064892e-05  3.5814410190599384e-08  -2.0284001196658651e-0