<?xml version="1.0"?>
<VTKFile type="UnstructuredGrid"  version="0.1"  >
<UnstructuredGrid>
<Piece  NumberOfPoints="2868" NumberOfCells="5400">
<Points>
<DataArray  type="Float64"  NumberOfComponents="3"  format="ascii">0.534923 0.326073 0  0.510642 0.314196 0  0.466125 0.293082 0  0.436448 0.281205 0  0.409468 0.275927 0  0.368998 0.270648 0  0.35281 0.275927 0  0.381139 0.302319 0  0.405421 0.326073 0  0.410817 0.33531 0  0.408119 0.349826 0  0.400025 0.357744 0  0.375743 0.368301 0  0.329878 0.392055 0  0.297502 0.432963 0  0.282663 0.476511 0  0.285361 0.524018 0  0.298851 0.572845 0  0.317737 0.6045160000000001 0  0.337972 0.6361869999999999 0  0.360904 0.674457 0  0.368998 0.69953 0  0.359555 0.7219640000000001 0  0.360904 0.757594 0  0.370347 0.766831 0  0.381139 0.762872 0  0.390582 0.741758 0  0.404072 0.720644 0  0.424307 0.707448 0  0.447239 0.702169 0  0.480964 0.704808 0  0.479615 0.6889729999999999 0  0.468823 0.675776 0  0.447239 0.6691780000000001 0  0.428354 0.6691780000000001 0  0.410817 0.6639 0  0.404072 0.653343 0  0.395978 0.628269 0  0.387884 0.59132 0  0.389233 0.576804 0  0.397327 0.557009 0  0.410817 0.547772 0  0.424307 0.546452 0  0.437797 0.55305 0  0.44589 0.5662469999999999 0  0.441843 0.582082 0  0.439145 0.5979179999999999 0  0.449937 0.609795 0  0.468823 0.603196 0  0.479615 0.59 0  0.489058 0.570205 0  0.494454 0.546452 0  0.505246 0.522699 0  0.522783 0.509502 0  0.55246 0.494986 0  0.586185 0.484429 0  0.615863 0.48047 0  0.64554 0.473872 0  0.6671240000000001 0.461995 0  0.683312 0.451438 0  0.696802 0.435603 0  0.703547 0.417128 0  0.7116400000000001 0.393374 0  0.7183850000000001 0.37226 0  0.7251300000000001 0.364342 0  0.739969 0.353785 0  0.7453650000000001 0.344548 0  0.7453650000000001 0.327393 0  0.737271 0.318155 0  0.7183850000000001 0.316835 0  0.7008490000000001 0.319475 0  0.677916 0.318155 0  0.650936 0.316835 0  0.610467 0.318155 0  0.57944 0.324753 0  0.559205 0.328712 0  0.5389699999999999 0.326073 0  1 1 0  1 0 0  0 0 0  0 1 0  0.532238 0.32476 0  0.528748 0.323052 0  0.52421 0.320833 0  0.518311 0.317947 0  0.503447 0.310783 0  0.494093 0.306347 0  0.481933 0.30058 0  0.452151 0.28749 0  0.392327 0.273691 0  0.379141 0.271971 0  0.360474 0.283066 0  0.369797 0.291752 0  0.391424 0.31238 0  0.399335 0.32012 0  0.40958 0.341964 0  0.393939 0.36039 0  0.386028 0.36383 0  0.364248 0.374254 0  0.349304 0.381994 0  0.315801 0.409841 0  0.292986 0.551616 0  0.350934 0.657818 0  0.360127 0.737055 0  0.360566 0.748664 0  0.385245 0.753692 0  0.396447 0.732578 0  0.466301 0.703661 0  0.459439 0.672908 0  0.418442 0.666195 0  0.400553 0.642441 0  0.39255 0.612619 0  0.389913 0.60058 0  0.392752 0.568197 0  0.444131 0.573132 0  0.458149 0.606926 0  0.5005540000000001 0.533026 0  0.571522 0.489019 0  0.632637 0.476741 0  0.689177 0.444553 0  0.708121 0.403702 0  0.715453 0.38144 0  0.732406 0.359166 0  0.7453650000000001 0.337089 0  0.72906 0.317581 0  0.629879 0.317522 0  0.59293 0.321884 0  0.568003 0.326991 0  0.55202 0.327775 0  0.546493 0.327054 0  0.542241 0.326499 0  1 0.9 0  1 0.8 0  1 0.7 0  1 0.6 0  1 0.5 0  1 0.4 0  1 0.3 0  1 0.2 0  1 0.1 0  0.9 0 0  0.8 0 0  0.7 0 0  0.6 0 0  0.5 0 0  0.4 0 0  0.3 0 0  0.2 0 0  0.1 0 0  0.1 1 0  0.2 1 0  0.3 1 0  0.4 1 0  0.5 1 0  0.6 1 0  0.7 1 0  0.8 1 0  0.9 1 0  0 0.1 0  0 0.2 0  0 0.3 0  0 0.4 0  0 0.5 0  0 0.6 0  0 0.7 0  0 0.8 0  0 0.9 0  0.535686 0.5031910000000001 0  0.753987 0.733359 0  0.167145 0.741436 0  0.173378 0.257204 0  0.733497 0.159862 0  0.554096 0.15788 0  0.849187 0.479053 0  0.488793 0.838452 0  0.138507 0.5592 0  0.30686 0.154944 0  0.348904 0.890523 0  0.058006 0.065099 0  0.06984899999999999 0.937917 0  0.93633 0.939704 0  0.934625 0.053613 0  0.343397 0.333452 0  0.473272 0.639943 0  0.433266 0.638072 0  0.415174 0.58269 0  0.533435 0.545042 0  0.390848 0.340652 0  0.53655 0.320242 0  0.127966 0.393775 0  0.83861 0.850455 0  0.635242 0.8551299999999999 0  0.852158 0.633441 0  0.653427 0.626848 0  0.861226 0.24292 0  0.166128 0.12976 0  0.216875 0.8698709999999999 0  0.458305 0.11179 0  0.84446 0.101633 0  0.202024 0.642528 0  0.644825 0.115855 0  0.671342 0.218358 0  0.251354 0.286186 0  0.262388 0.75153 0  0.063044 0.751571 0  0.068189 0.242962 0  0.435781 0.9053949999999999 0  0.934144 0.451133 0  0.568393 0.237622 0  0.814984 0.395506 0  0.752951 0.517227 0  0.456254 0.780699 0  0.073352 0.531116 0  0.337731 0.206071 0  0.363213 0.960371 0  0.330742 0.363592 0  0.516613 0.55705 0  0.369057 0.332992 0  0.500926 0.617309 0  0.498004 0.665534 0  0.412142 0.61178 0  0.454233 0.6366039999999999 0  0.422782 0.567496 0  0.541193 0.5214800000000001 0  0.439761 0.65557 0  0.5163 0.533672 0  0.414775 0.64562 0  0.40073 0.576135 0  0.430362 0.5880339999999999 0  0.385432 0.351492 0  0.400298 0.335397 0  0.398325 0.348194 0  0.528702 0.314885 0  0.540814 0.322334 0  0.534477 0.322953 0  0.619095 0.743583 0  0.885162 0.737972 0  0.08076 0.668849 0  0.90734 0.36634 0  0.09468699999999999 0.868937 0  0.759838 0.912152 0  0.901518 0.540898 0  0.747285 0.607479 0  0.229182 0.071641 0  0.06915399999999999 0.450091 0  0.244775 0.203309 0  0.076534 0.331755 0  0.897847 0.167826 0  0.578909 0.911415 0  0.07713299999999999 0.146341 0  0.477215 0.203448 0  0.922631 0.869341 0  0.517415 0.074785 0  0.297026 0.827793 0  0.7832710000000001 0.246505 0  0.74519 0.061079 0  0.36033 0.069068 0  0.210313 0.475228 0  0.859426 0.928758 0  0.5745479999999999 0.609182 0  0.243069 0.383398 0  0.283099 0.934598 0  0.417416 0.843141 0  0.643942 0.553164 0  0.112687 0.079336 0  0.281357 0.658386 0  0.765043 0.436177 0  0.611361 0.198486 0  0.234496 0.58911 0  0.206479 0.702638 0  0.679608 0.155818 0  0.62682 0.259978 0  0.690538 0.264164 0  0.448938 0.956308 0  0.808154 0.328403 0  0.379583 0.91913 0  0.308083 0.297769 0  0.312358 0.730249 0  0.563101 0.278576 0  0.435597 0.746198 0  0.385475 0.225229 0  0.572248 0.518034 0  0.357864 0.35422 0  0.497647 0.641694 0  0.458101 0.655768 0  0.360474 0.310727 0  0.467038 0.620139 0  0.47798 0.659909 0  0.41102 0.628072 0  0.48324 0.609015 0  0.427544 0.617941 0  0.388633 0.328253 0  0.405336 0.599404 0  0.408351 0.565178 0  0.42395 0.600985 0  0.431562 0.576523 0  0.424905 0.6551979999999999 0  0.398064 0.58782 0  0.427739 0.557934 0  0.5192909999999999 0.303443 0  0.53142 0.320293 0  0.5449000000000001 0.323642 0  0.537166 0.323513 0  0.153974 0.920841 0  0.9181859999999999 0.67343 0  0.759946 0.820588 0  0.5375259999999999 0.783091 0  0.816532 0.545843 0  0.813991 0.178083 0  0.836774 0.702023 0  0.149815 0.318856 0  0.662287 0.923338 0  0.680146 0.791192 0  0.708961 0.663172 0  0.9372779999999999 0.287318 0  0.574622 0.6881660000000001 0  0.5894740000000001 0.076262 0  0.502822 0.926683 0  0.222269 0.811068 0  0.380457 0.164786 0  0.15321 0.684154 0  0.458063 0.051413 0  0.161702 0.056026 0  0.199351 0.198818 0  0.298946 0.09553200000000001 0  0.902465 0.795949 0  0.121139 0.791477 0  0.906269 0.112287 0  0.056109 0.822332 0  0.512172 0.13237 0  0.940964 0.741805 0  0.888887 0.408777 0  0.354543 0.825964 0  0.808736 0.068638 0  0.068507 0.394071 0  0.719105 0.563843 0  0.247287 0.149664 0  0.293062 0.237128 0  0.240524 0.434997 0  0.141255 0.623289 0  0.945202 0.160621 0  0.502914 0.247629 0  0.144669 0.480811 0  0.665025 0.060817 0  0.728047 0.224344 0  0.861995 0.313312 0  0.200068 0.534235 0  0.253262 0.965623 0  0.893804 0.49307 0  0.604391 0.572456 0  0.947088 0.345347 0  0.439372 0.227307 0  0.629847 0.159823 0  0.273405 0.880181 0  0.302744 0.776823 0  0.781502 0.295365 0  0.275342 0.349602 0  0.7283849999999999 0.472798 0  0.229136 0.246478 0  0.807794 0.480346 0  0.709476 0.112786 0  0.275506 0.694991 0  0.771674 0.394419 0  0.449715 0.861802 0  0.419159 0.799696 0  0.674851 0.503139 0  0.280443 0.61016 0  0.572443 0.192538 0  0.393113 0.87525 0  0.405555 0.948428 0  0.330942 0.934103 0  0.540509 0.597101 0  0.312763 0.6689310000000001 0  0.254368 0.540179 0  0.595265 0.25915 0  0.606679 0.234099 0  0.657131 0.279138 0  0.722458 0.279478 0  0.333 0.308056 0  0.351529 0.246142 0  0.455714 0.7257940000000001 0  0.585239 0.295143 0  0.340062 0.72492 0  0.545593 0.293773 0  0.555449 0.545426 0  0.414311 0.737314 0  0.590854 0.502323 0  0.350507 0.368444 0  0.484423 0.625665 0  0.483899 0.674542 0  0.378137 0.317274 0  0.446416 0.646404 0  0.373532 0.347654 0  0.446876 0.619769 0  0.466106 0.666068 0  0.437545 0.609254 0  0.434988 0.565726 0  0.41462 0.656829 0  0.418803 0.556961 0  0.398425 0.327446 0  0.517803 0.310421 0  0.549516 0.322918 0  0.57701 0.842889 0  0.8291269999999999 0.773906 0  0.643235 0.684732 0  0.134281 0.207734 0  0.865997 0.055966 0  0.680959 0.723345 0  0.165229 0.8415550000000001 0  0.54558 0.959672 0  0.783726 0.656439 0  0.913315 0.595533 0  0.699439 0.860667 0  0.785839 0.125076 0  0.551673 0.037713 0  0.9200970000000001 0.223214 0  0.206406 0.299726 0  0.087064 0.596401 0  0.935644 0.394252 0  0.964557 0.252582 0  0.230124 0.928346 0  0.120579 0.271764 0  0.8572149999999999 0.524082 0  0.7670979999999999 0.5551469999999999 0  0.936094 0.507131 0  0.804064 0.59585 0  0.700565 0.608273 0  0.429773 0.174231 0  0.117746 0.727333 0  0.5389620000000001 0.730231 0  0.862761 0.359173 0  0.821444 0.284046 0  0.193552 0.35818 0  0.234923 0.505555 0  0.193209 0.421217 0  0.220144 0.755896 0  0.594015 0.131642 0  0.283813 0.195855 0  0.517519 0.213961 0  0.553509 0.639116 0  0.280391 0.378018 0  0.852183 0.436817 0  0.746983 0.197173 0  0.821806 0.221318 0  0.449853 0.828453 0  0.883758 0.453926 0  0.183484 0.589542 0  0.348384 0.129314 0  0.255254 0.838525 0  0.504849 0.798516 0  0.320344 0.863432 0  0.611669 0.525425 0  0.265864 0.804962 0  0.72056 0.521442 0  0.613372 0.6101220000000001 0  0.481262 0.881068 0  0.655778 0.191988 0  0.701921 0.196918 0  0.5658260000000001 0.5731810000000001 0  0.46914 0.240927 0  0.343219 0.173284 0  0.888786 0.278502 0  0.244113 0.6750930000000001 0  0.739546 0.417914 0  0.784023 0.355942 0  0.326805 0.265549 0  0.248616 0.6
[...]
<PointData  Scalars="u"> 
<DataArray  type="Float64"  Name="u"  format="ascii">8.2335297607249858e-01  8.2441033721007184e-01  8.8968504426392370e-01  9.2306651412208907e-01  9.2388177558321571e-01  9.2958542301714409e-01  8.8882692271089447e-01  5.2845166636543220e-02  1.5287038684461411e-04  5.0428801421804793e-05  -1.5172944820373338e-05  -5.7106318915845245e-06  1.0260141853981574e-04  -9.1882928544410290e-03  -1.8147913628002242e-02  -2.4480133028942836e-03  -1.7374215495447373e-02  -4.7067347732002371e-02  -1.1317399973487003e-02  2.9305136419222024e-02  4.9067167960004064e-02  3.1818998234328061e-01  7.1872452138081699e-01  9.9697165476481842e-01  9.9774654549394692e-01  9.9696406747583999e-01  9.9689397903834709e-01  9.9735471980743862e-01  9.9659844893411209e-01  9.9330165373576951e-01  9.9864016069889305e-01  9.9661344726566969e-01  9.8892453245953871e-01  9.5007798771695151e-01  6.5643983055772204e-01  2.8531938377284205e-01  2.9425273358761012e-01  8.3908226025523192e-01  2.8827579121848146e-01  2.4548755830327720e-01  1.7005698571853778e-01  5.5849731209617275e-02  2.2485974222036763e-02  3.7375938767619819e-02  1.2924267374234191e-01  4.2065970422281507e-01  9.2527979693589180e-01  9.9298045403253488e-01  9.9901449053724778e-01  1.0060273481802811e+00  8.4455201019535109e-01  4.3637817058424594e-01  7.9619109636148100e-01  9.5840331717611071e-01  8.6920866833220023e-01  9.5939606506180175e-01  9.9762404396684523e-01  9.8422495450775049e-01  9.8830270098386597e-01  9.4647548201523035e-01  7.4198101994094190e-01  6.3436698463036301e-01  7.3156307678756016e-01  8.9849259272405846e-01  9.3721306945335603e-01  9.9395734448117756e-01  9.9681793936639196e-01  9.9857051432046928e-01  9.9921025335782654e-01  9.9930478629142250e-01  9.9933594358954259e-01  9.9961938042707865e-01  9.9978397327626389e-01  9.9974453207405656e-01  9.9199727251013148e-01  9.3526883045934339e-01  8.5082145658519326e-01  1.0000000000000000e+00  1.0000000000000000e+00  1.0980405972591025e-02  1.5491125962149119e-01  8.2159457263418001e-01  8.0845941084727002e-01  8.0372862657034927e-01  8.1024709877196854e-01  8.4210291352863575e-01  8.5999462934945536e-01  8.6942423724448237e-01  9.1918357424972252e-01  9.3554323181451493e-01  9.1995937269644434e-01  5.4527364774093179e-01  2.0329899451104161e-01  4.3819667914820485e-03  8.5208767238079608e-04  3.4408117349212196e-06  8.3596603083313205e-06  1.0910966245887630e-04  4.7765684363382217e-04  -1.1733864868508500e-02  -1.6822489774337975e-02  -4.9589799361050617e-02  3.2002078687186554e-02  9.3112117548201379e-01  9.8834344704725063e-01  9.9560132363097587e-01  9.9721872701202385e-01  9.9691697894837195e-01  9.7861762183894219e-01  4.0568815155745946e-01  6.2712583918196296e-01  7.5139502198086761e-01  4.4582943545477416e-01  2.0675879056083496e-01  1.7228481574950372e-01  9.9091910097761915e-01  5.2138777298105710e-01  8.7089668456338920e-01  9.8930516156957138e-01  8.9846528678658000e-01  6.5231262643113919e-01  7.8432456185172339e-01  9.7638284294383615e-01  9.9719756542431426e-01  9.9923348811651103e-01  9.9977187318760252e-01  9.9930165254139380e-01  9.6871221296859955e-01  9.1301313045942090e-01  8.9407477332815533e-01  8.7524984935294103e-01  1.0000000000000000e+00  1.0000000000000000e+00  1.0000000000000000e+00  1.0000000000000000e+00  1.0000000000000000e+00  1.0000000000000000e+00  1.0000000000000000e+00  1.0000000000000000e+00  1.0000000000000000e+00  9.9897122794078397e-01  1.0001141684135009e+00  9.9999262809475098e-01  9.9993065201837283e-01  9.9747026263513572e-01  9.8498321652242937e-01  9.9897818188278298e-01  9.3660084787768161e-01  5.3359779078245040e-01  9.1757657837007522e-01  9.9313221665732287e-01  1.0000767067811784e+00  1.0000046432783447e+00  9.9999015293610627e-01  1.0000003324122424e+00  1.0001253595864410e+00  1.0033686699874571e+00  9.2103298448348159e-01  1.0233034869047710e+00  1.0002360188510706e+00  1.0042378128693994e+00  1.0847699587529591e+00  7.9332171621145831e-01  9.9042238853497100e-01  1.0000714096997476e+00  1.0004418570694038e+00  1.0053017858864082e+00  9.2640817004734022e-01  1.0000002609097378e+00  9.9995480825992145e-01  9.9862814064152194e-01  9.9994831448566457e-01  1.0001755020141778e+00  9.9999996957918780e-01  9.9998021186256547e-01  1.0446708414054424e+00  1.0009135713405088e+00  9.9997762633009868e-01  1.0057690416802323e+00  1.0024813050895145e+00  1.0002294741902114e+00  9.9980910608300499e-01  2.0697636015766130e-01  1.0003657225017579e+00  1.0015626354209703e+00  8.5897675374306470e-01  9.9608117724578227e-01  7.1857310438599306e-05  8.7746036632527358e-01  1.0393630735451675e+00  1.0000015738508528e+00  1.0000011226598007e+00  1.0000000094058186e+00  9.9999453955482154e-01  1.0000021383367326e+00  9.9932273875524824e-01  1.0001327037250836e+00  1.0001882956680825e+00  9.9998356672572397e-01  9.9899173593991863e-01  1.0000103525975019e+00  9.9982720817268855e-01  1.0001356360417346e+00  9.9992759526471608e-01  9.9950074506383313e-01  9.9920677960032989e-01  1.0000172171039241e+00  9.9999999945089424e-01  1.0000428815104292e+00  9.9999709244059398e-01  9.9999831293310348e-01  1.0000145960625910e+00  1.0337388439079320e+00  1.0004533152958681e+00  1.0000078431711581e+00  1.2486663051568878e-01  9.7544613813244530e-01  3.9582339777071473e-03  1.0004403055836579e+00  9.9995907366086290e-01  9.8008457118569325e-01  1.0006900701345232e+00  5.0604499593819474e-01  9.9050292116500727e-01  9.6983027540803590e-01  9.2996319999159294e-01  7.3982322958062108e-01  5.0355516120037969e-01  8.3638832216431758e-01  4.2615857608411415e-05  4.0628863835638225e-05  -1.3096705320392401e-05  8.8941809543035588e-01  8.8512558170478295e-01  8.3844422325804324e-01  9.9999705051720333e-01  9.9999996836996585e-01  9.9989121834304839e-01  9.9999998223357500e-01  1.0000334167341947e+00  9.9998257167406168e-01  9.9999999392170325e-01  1.0000008948402255e+00  1.0002466811287929e+00  6.3508834319711549e-01  9.9981863606494603e-01  1.0010281167171229e+00  1.0000006482665771e+00  1.0000021483828940e+00  9.9887936489672546e-01  1.0003463573720488e+00  9.9998809898144192e-01  1.0000214313065665e+00  1.0000987180228678e+00  1.0000115586577460e+00  9.9999492171629978e-01  1.0002488365978308e+00  -6.9313226908121459e-02  1.0005556721834965e+00  9.9998031183919478e-01  1.0030630571306454e+00  9.9999256047584661e-01  1.0000610583792908e+00  9.9995616735281889e-01  1.0076661358956207e+00  1.0056367502796093e+00  9.9998244878741716e-01  1.0000988082900870e+00  1.0192687797291984e+00  1.0000183824753164e+00  9.9997392669038399e-01  9.9996516448644912e-01  9.9997554745361206e-01  9.9999961850714691e-01  9.9999897210345201e-01  9.9998512988076438e-01  9.9438399391479382e-01  1.0002744530866472e+00  1.0000238272108222e+00  1.0000245667043461e+00  1.0007084821192562e+00  9.9977824021881556e-01  -1.1058335737911852e-02  1.0000409830120913e+00  9.9800342348811677e-01  4.7001192885249156e-02  1.0007490725683557e+00  9.9996906110350281e-01  9.5584250316041774e-01  1.0011860986859598e+00  1.0013670075485190e+00  7.0925469614802571e-04  8.9196997411351442e-01  4.3974113041330337e-01  9.8681448974091956e-01  5.7623420662257130e-01  7.9718342931718944e-01  5.6959867313815260e-01  1.7244739688509203e-01  9.6187482808965041e-01  8.4358344335481239e-01  9.0357102197414008e-01  8.4986210914351035e-01  1.0002725037705795e+00  9.9999999976518950e-01  1.0000040178876097e+00  9.9999751373539758e-01  9.9999996644392608e-01  1.0000106397591770e+00  1.0000000381130858e+00  1.0005999382034561e+00  9.9999435846987150e-01  9.9999972089301525e-01  1.0000006900834300e+00  9.9999986586953171e-01  1.0000001884920044e+00  9.9999945853686645e-01  9.9999716530827309e-01  1.0001522596268999e+00  9.9905830930106354e-01  9.9993729544399723e-01  1.0001832555273640e+00  1.0047755828908844e+00  1.0013882687826778e+00  9.9966660643667959e-01  1.0000003950732137e+00  1.0001740253085822e+00  9.9997970165448258e-01  9.9974543455723075e-01  9.9987395026469161e-01  9.9999999785211158e-01  9.9999997377859606e-01  9.9996337025077209e-01  9.9999149554634914e-01  1.0308155914101955e+00  9.9999454108028540e-01  9.9939956198870894e-01  9.9952560879092089e-01  5.6282044522968233e-01  1.0009228588785675e+00  9.9999971096957418e-01  9.9997858623565528e-01  2.1792136145946500e-01  9.9999870905746724e-01  9.9987908483783761e-01  9.9999909069362647e-01  8.8877620446468786e-01  9.9991685113489637e-01  1.0000000470860966e+00  9.9995990329125939e-01  1.0000000006909120e+00  9.9991548641285788e-01  1.0000831239737744e+00  9.9990172149062140e-01  1.0000179110501823e+00  1.0000002110632653e+00  9.9126358049434893e-01  9.9978853738821216e-01  1.0008667065641554e+00  9.9999950781165292e-01  1.0000079023580164e+00  1.0000904876668273e+00  9.9999665546695238e-01  9.9999333550298020e-01  9.9997742965129066e-01  1.0004486361582374e+00  8.4895884598179527e-01  9.9991384616816192e-01  1.0000044012554936e+00  9.9999537109017200e-01  1.0000025812671569e+00  1.0000161960961598e+00  9.5624129529056090e-01  2.5775949944737298e-01  1.0000474820275793e+00  9.9988979356026431e-01  1.0000020778630738e+00  1.0000095414781347e+00  8.7577700645832646e-01  9.9904249304688253e-01  9.9987225728165785e-01  9.9999633214450079e-01  9.8994471795576944e-01  1.0000053306254051e+00  1.0008622596759305e+00  9.9955030629783093e-01  9.9261461528367390e-01  -5.5417090185234438e-03  1.0005956248493162e+00  9.9908331880862478e-01  7.2065272746577929e-03  9.9886177246997410e-01  -3.0367527613514941e-04  9.9982848198836161e-01  9.9240398406730435e-01  9.9329211948348828e-01  2.7281320765865880e-01  4.2881764087448715e-01  2.0607406466463771e-01  3.1970421222942194e-04  8.7542920175861338e-01  9.3145611525007288e-01  1.0000002872596812e+00  9.9999914642587362e-01  1.0000017464028179e+00  9.9976133014572066e-01  1.0000759962580461e+00  9.9999904974459075e-01  9.9985116572326593e-01  9.9999901672404301e-01  1.0000001098930855e+00  1.0000000003563736e+00  1.0000033363313827e+00  9.9999930721899677e-01  9.9996551475757378e-01  9.9999992028063667e-01  1.0002423639684463e+00  1.0003950919347011e+00  9.9999999867517197e-01  9.9999975126109786e-01  9.9996432341132757e-01  1.0013304140521480e+00  9.9999978258947797e-01  9.9999987894085496e-01  9.9999999591031896e-01  1.0000000398493203e+00  9.9999577359465119e-01  1.0003889986132144e+00  1.0002374699022067e+00  1.0000014457651056e+00  9.9999993311335467e-01  1.0000084185165210e+00  1.0026887583125010e+00  6.7954197357125393e-02  9.6630090876971109e-01  9.9997872273552324e-01  9.9996464017800912e-01  9.9890046892874840e-01  9.9972914903232302e-01  9.9998140223897247e-01  8.4086098052996683e-01  1.0000000147433283e+00  9.9994853880723522e-01  9.9998328720798524e-01  1.0000303353998519e+00  9.9999988358795477e-01  1.0053910213416755e+00  1.0003978815840022e+00  9.9980898446981081e-01  1.0000016808746293e+00  1.0000840729429974e+00  1.0005947667184301e+00  9.9993950114518371e-01  1.0000031249887191e+00  1.0000007796796591e+00  9.9998812419665017e-01  9.9985605581295078e-01  1.0001252747309723e+00  1.0000435975181159e+00  9.9997150242217192e-01  1.0007045512989383e+00  9.9999907874526950e-01  1.0001686559863334e+00  9.9769847888561558e-01  9.9999721383383222e-01  9.9756202350247070e-01  1.0034728225222402e+00  9.9999621921800286e-01  1.0000048854720203e+00  1.0078972694472075e+00  1.0000386741403287e+00  9.9999331665230939e-01  9.9995303243850542e-01  6.9728795555144429e-01  9.9967247435806861e-01  1.0000111975596235e+00  1.0001583666364378e+00  9.9990587775245698e-01  9.6813196643405941e-01  1.0000224725110936e+00  1.0000371298103281e+00  2.1549824470168847e-02  4.1472164481317730e-01  9.9998890325226686e-01  1.0000568666495988e+00  1.0000199371758529e+00  1.0041691638149883e+00  1.0019080186801366e+00  1.0026581808914503e+00  9.9415837015093300e-01  1.0008684152683767e+00  1.0011643829745149e+00  9.9999273703444325e-01  1.0000253493659248e+00  1.0006941978502912e+00  1.0000095732460470e+00  9.9993862834348579e-01  9.9073830517003247e-01  1.0000551118801635e+00  9.9992637969784204e-01  1.0003652184179737e+00  9.9666516646152292e-01  9.9995756508641553e-01  9.9996992527118178e-01  9.9999910630521194e-01  9.9900809826816339e-01  9.9965114571732006e-01  7.1731471989828333e-01  9.9798865061815889e-01  9.8050791365999734e-01  9.9969830496390577e-01  1.4433984989965399e-04  9.9323607046411944e-01  3.8351330230653385e-04  8.5743663269532966e-01  9.9999999981127341e-01  1.0000035400702478e+00  9.9999999746783719e-01  1.0000016045427076e+00  9.9999737385362619e-01  9.9985604157938901e-01  1.0000011297308149e+00  9.9999899552126048e-01  1.0000109577769245e+00  1.0000255875301101e+00  9.9999933557138332e-01  9.9999030500596431e-01  1.0000007402751732e+00  1.0022558415596976e+00  9.9949550260038944e-01  1.0000334826073258e+00  9.9980860662174376e-01  9.9984573572291602e-01  1.0000029203622971e+00  9.9998514824317952e-01  9.9999985207075870e-01  9.9970548035582574e-01  9.9965613994548375e-01  1.0000343682083135e+00  -3.4938380768980044e-02  1.0000045581066512e+00  9.9999677883744376e-01  1.0000650292809852e+00  9.9995019225944881e-01  9.9999873157859243e-01  1.0000015577549062e+00  3.5384623630417134e-01  9.9999826844757689e-01  9.9811179388001225e-01  1.0000123180491327e+00  1.0000341300727249e+00  9.9999797692069559e-01  1.0002927342636831e+00  1.0000041812088187e+00  1.0000617361638640e+00  1.0009698527084379e+00  9.9998995095385923e-01  9.9969621734693304e-01  1.0000188048038565e+00  1.0000113405086373e+00  1.0005040252501807e+00  1.0000421528302845e+00  1.0000595768998852e+00  9.9999184014554088e-01  1.0022887215778378e+00  1.0000011973938592e+00  1.0000142007631823e+00  9.9995209477959990e-01  9.9999093060353383e-01  8.0670408563273366e-01  1.0000013790723310e+00  1.0000129671809936e+00  1.0008942388025204e+00  1.0003557841356945e+00  1.0002593113632889e+00  1.0000350875463369e+00  9.9995312312406692e-01  1.0000380414674894e+00  4.3754605160516813e-01  9.9994721179347856e-01  9.9999794410989051e-01  9.9998283851123437e-01  9.9904617271114726e-01  1.0002360450595713e+00  1.0000082129593435e+00  9.9975235783677385e-01  1.0000047087356363e+00  4.7394374116820459e-01  9.4924350037970751e-01  1.0000386236147731e+00  9.9992799514706965e-01  1.0000152680837227e+00  9.9991531507837472e-01  9.9997324976415902e-01  9.9996035600156175e-01  8.9800072185159763e-01  9.8346406958722776e-01  1.0000430513377443e+00  1.0000349349310655e+00  9.9999646757389804e-01  9.9324378693507454e-01  9.9999422272592065e-01  1.0000689889999133e+00  1.0000215431422077e+00  9.9958362789252697e-01  9.9985778180339691e-01  9.8227627102033943e-01  9.8832968673575494e-01  9.4858501678461749e-01  9.7682388565296174e-01  9.6718011211132993e-01  9.9982166149814422e-01  9.9455872752646357e-01  1.0000001776210552e+00  9.9973202181903387e-01  9.9750218925941747e-01  9.9999698420914729e-01  9.9844386088253279e-01  9.1013404483507465e-01  9.5348644696320084e-01  9.4974748076208815e-01  1.0001805567018418e+00  9.9999708638637941e-01  9.9999497177487306e-01  1.0000073424559426e+00  9.9999928490090417e-01  -3.0607469358719590e-03  9.9999649345835395e-01  1.0003411430176075e+00  1.0000010200724674e+00  9.9999369459068232e-01  9.9999648505891625e-01  1.0000023773762081e+00  9.9999883936429657e-01  1.0000215747941610e+00  2.3195676160621589e-01  1.0000078023262202e+00  9.9996616582121156e-01  9.9978290794059566e-01  1.0000291813699695e+00  9.9995807382679780e-01  9.9999024338231435e-01  1.0000085507792815e+00  1.0004129998256492e+00  9.9934235756899026e-01  1.0000660847414564e+00  9.9996013958756569e-01  1.0012284375237215e+00  1.0001041579247130e+00  1.0010276503995605e+00  1.0001771711851395e+00  9.9993511345564368e-01  9.9917618523215579e-01  1.0000173565124337e+00  1.0000011269597762e+00  1.0000100212015990e+00  1.0000480694659544e+00  3.6377188772904118e-01  9.9933027064781998e-01  1.0000019728144407e+00  9.9998337373094848e-01  9.9915625297294697e-01  9.9981494481358080e-01  9.9998601680362897e-01  1.0000142942834411e+00  1.0003888478238467e+00  9.9993568042595382e-01  9.9995843783589389e-01  1.0000712652336907e+00  1.0000077040752571e+00  1.0000250078884720e+00  1.0000035095425104e+00  9.9999240184725546e-01  1.0000259323868024e+00  1.0000019658755284e+00  9.9980898558426179e-01  9.9996663302845246e-01  1.0008392139638467e+00  9.7887496488497261e-01  9.9974326017945025e-01  9.9998778958811574e-01  8.5635808255695567e-01  9.0116144317854519e-01  9.9142037232898206e-01  9.9999730363757156e-01  9.9514344496318385e-01  9.7140522212090707e-01  1.0014500450806498e+00  9.9996124787172158e-01  9.1619778114905337e-01  1.0013586757246020e+00  1.0000077879864870e+00  9.9997927833437295e-01  1.0000063071878198e+00  9.7168052256815107e-01  9.9971812245503777e-01  9.9971633916292690e-01  9.9995670730691444e-01  9.9075276300235371e-01  9.9991723771394381e-01  9.7787425624746738e-01  9.8233515958665341e-01  9.3649928845662778e-01  9.9999896855307169e-01  1.0000048668671342e+00  1.0000019603569994e+00  9.9999260031600068e-01  1.0000085435148156e+00  1.0000003843370022e+00  1.0019427827806286e+00  9.9995238098570816e-01  1.0000054610547753e+00  1.0000166370159549e+00  9.9999396580477318e-01  9.9997162363179148e-01  1.0000090953884200e+00  9.9999540705650380e-01  1.0000199589818535e+00  1.0000143124355143e+00  9.9736860565358676e-01  1.0000462626314583e+00  1.0000021430490347e+00  9.9999569948580103e-01  1.0000121577975738e+00  9.9997741108916705e-01  1.0000076532584621e+00  9.8426324264098120e-01  9.9974758219434778e-01  1.0003123171499280e+00  1.0000088541164573e+00  9.9914968983569286e-01  9.9869395214381707e-01  9.9695406299719347e-01  9.9942475211663129e-01  9.6594514131185782e-01  9.0415255261879746e-01  9.9921766701724335e-01  9.7352459869835883e-01  9.9710629390537087e-01  9.6010531426515378e-01  9.9997777165049961e-01  9.9999896166835078e-01  1.0000879270976342e+00  1.0000249391253795e+00  9.9998440091221885e-01  9.9984982804201294e-01  9.9999730359346772e-01  9.9979740838851650e-01  9.9937553793801448e-01  1.0000094762723120e+00  9.9593577092695640e-01  9.9802704916493523e-01  1.0000896472950622e+00  9.9907339939915984e-01  9.2223833196539229e-01  9.3710121200524188e-01  9.4005890337534370e-01  9.9987200543287047e-01  9.9991041815528980e-01  8.2429766653337777e-01  8.1374294736333741e-01  8.0533574383571638e-01  8.1378585190995500e-01  8.0908204594750821e-01  8.4243760782511345e-01  8.5077612306924988e-01  8.6841052212662007e-01  8.6416477562339311e-01  9.0719041890014174e-01  9.2194091800530065e-01  9.1742305234892341e-01  9.2655146160195367e-01  9.2171443341592529e-01  9.2296771924664522e-01  9.1848565402467652e-01  7.0188425449328562e-01  3.2799691165998135e-01  1.0451185454637706e-01  1.3751725692396273e-02  1.8771432054309999e-03  3.5856860543420974e-04  8.8758658600343525e-05  1.6539563092427661e-05  -1.0858868866519727e-05  -1.4961021971373640e-05  -4.6949245350823328e-06  4.8048831147057935e-05  1.8026683714334043e-04  7.8908730538612077e-05  -8.6332758675171253e-04  -4.8106719307723349e-03  -1.4133714367778129e-02  -1.2492227777441538e-02  -1.4773235281976927e-02  -4.8712712887286165e-03  -2.1474854956924264e-02  -5.9753088210385316e-02  -2.7401664701811924e-02  2.2544748675400739e-02  3.5400613695138416e-02  3.5283118984467024e-02  1.5422342404769987e-01  4.5336012762230998e-01  8.3676270970494493e-01  9.7168559004691812e-01  9.9462105784302168e-01  9.9731138566523592e-01  9.9697808798429777e-01  9.9579209897394605e-01  9.9610964216983333e-01  9.9664372230348541e-01  9.9767098773029117e-01  9.9883671182140255e-01  9.9563547906640493e-01  9.9460762946354686e-01  9.9802614604929285e-01  9.9672125355531649e-01  9.9386636151708641e-01  9.8455337735060922e-01  9.7723767487470803e-01  8.6081264082101405e-01  5.3513582415667282e-01  3.3361001052952749e-01  2.7831311602374892e-01  4.2420088078199436e-01  8.2278809571454081e-01  8.2690423423886061e-01  6.4621019309728045e-01  3.3486052648616149e