<?xml version="1.0"?>
<VTKFile type="UnstructuredGrid"  version="0.1"  >
<UnstructuredGrid>
<Piece  NumberOfPoints="2868" NumberOfCells="5400">
<Points>
<DataArray  type="Float64"  NumberOfComponents="3"  format="ascii">0.534923 0.326073 0  0.510642 0.314196 0  0.466125 0.293082 0  0.436448 0.281205 0  0.409468 0.275927 0  0.368998 0.270648 0  0.35281 0.275927 0  0.381139 0.302319 0  0.405421 0.326073 0  0.410817 0.33531 0  0.408119 0.349826 0  0.400025 0.357744 0  0.375743 0.368301 0  0.329878 0.392055 0  0.297502 0.432963 0  0.282663 0.476511 0  0.285361 0.524018 0  0.298851 0.572845 0  0.317737 0.6045160000000001 0  0.337972 0.6361869999999999 0  0.360904 0.674457 0  0.368998 0.69953 0  0.359555 0.7219640000000001 0  0.360904 0.757594 0  0.370347 0.766831 0  0.381139 0.762872 0  0.390582 0.741758 0  0.404072 0.720644 0  0.424307 0.707448 0  0.447239 0.702169 0  0.480964 0.704808 0  0.479615 0.6889729999999999 0  0.468823 0.675776 0  0.447239 0.6691780000000001 0  0.428354 0.6691780000000001 0  0.410817 0.6639 0  0.404072 0.653343 0  0.395978 0.628269 0  0.387884 0.59132 0  0.389233 0.576804 0  0.397327 0.557009 0  0.410817 0.547772 0  0.424307 0.546452 0  0.437797 0.55305 0  0.44589 0.5662469999999999 0  0.441843 0.582082 0  0.439145 0.5979179999999999 0  0.449937 0.609795 0  0.468823 0.603196 0  0.479615 0.59 0  0.489058 0.570205 0  0.494454 0.546452 0  0.505246 0.522699 0  0.522783 0.509502 0  0.55246 0.494986 0  0.586185 0.484429 0  0.615863 0.48047 0  0.64554 0.473872 0  0.6671240000000001 0.461995 0  0.683312 0.451438 0  0.696802 0.435603 0  0.703547 0.417128 0  0.7116400000000001 0.393374 0  0.7183850000000001 0.37226 0  0.7251300000000001 0.364342 0  0.739969 0.353785 0  0.7453650000000001 0.344548 0  0.7453650000000001 0.327393 0  0.737271 0.318155 0  0.7183850000000001 0.316835 0  0.7008490000000001 0.319475 0  0.677916 0.318155 0  0.650936 0.316835 0  0.610467 0.318155 0  0.57944 0.324753 0  0.559205 0.328712 0  0.5389699999999999 0.326073 0  1 1 0  1 0 0  0 0 0  0 1 0  0.532238 0.32476 0  0.528748 0.323052 0  0.52421 0.320833 0  0.518311 0.317947 0  0.503447 0.310783 0  0.494093 0.306347 0  0.481933 0.30058 0  0.452151 0.28749 0  0.392327 0.273691 0  0.379141 0.271971 0  0.360474 0.283066 0  0.369797 0.291752 0  0.391424 0.31238 0  0.399335 0.32012 0  0.40958 0.341964 0  0.393939 0.36039 0  0.386028 0.36383 0  0.364248 0.374254 0  0.349304 0.381994 0  0.315801 0.409841 0  0.292986 0.551616 0  0.350934 0.657818 0  0.360127 0.737055 0  0.360566 0.748664 0  0.385245 0.753692 0  0.396447 0.732578 0  0.466301 0.703661 0  0.459439 0.672908 0  0.418442 0.666195 0  0.400553 0.642441 0  0.39255 0.612619 0  0.389913 0.60058 0  0.392752 0.568197 0  0.444131 0.573132 0  0.458149 0.606926 0  0.5005540000000001 0.533026 0  0.571522 0.489019 0  0.632637 0.476741 0  0.689177 0.444553 0  0.708121 0.403702 0  0.715453 0.38144 0  0.732406 0.359166 0  0.7453650000000001 0.337089 0  0.72906 0.317581 0  0.629879 0.317522 0  0.59293 0.321884 0  0.568003 0.326991 0  0.55202 0.327775 0  0.546493 0.327054 0  0.542241 0.326499 0  1 0.9 0  1 0.8 0  1 0.7 0  1 0.6 0  1 0.5 0  1 0.4 0  1 0.3 0  1 0.2 0  1 0.1 0  0.9 0 0  0.8 0 0  0.7 0 0  0.6 0 0  0.5 0 0  0.4 0 0  0.3 0 0  0.2 0 0  0.1 0 0  0.1 1 0  0.2 1 0  0.3 1 0  0.4 1 0  0.5 1 0  0.6 1 0  0.7 1 0  0.8 1 0  0.9 1 0  0 0.1 0  0 0.2 0  0 0.3 0  0 0.4 0  0 0.5 0  0 0.6 0  0 0.7 0  0 0.8 0  0 0.9 0  0.535686 0.5031910000000001 0  0.753987 0.733359 0  0.167145 0.741436 0  0.173378 0.257204 0  0.733497 0.159862 0  0.554096 0.15788 0  0.849187 0.479053 0  0.488793 0.838452 0  0.138507 0.5592 0  0.30686 0.154944 0  0.348904 0.890523 0  0.058006 0.065099 0  0.06984899999999999 0.937917 0  0.93633 0.939704 0  0.934625 0.053613 0  0.343397 0.333452 0  0.473272 0.639943 0  0.433266 0.638072 0  0.415174 0.58269 0  0.533435 0.545042 0  0.390848 0.340652 0  0.53655 0.320242 0  0.127966 0.393775 0  0.83861 0.850455 0  0.635242 0.8551299999999999 0  0.852158 0.633441 0  0.653427 0.626848 0  0.861226 0.24292 0  0.166128 0.12976 0  0.216875 0.8698709999999999 0  0.458305 0.11179 0  0.84446 0.101633 0  0.202024 0.642528 0  0.644825 0.115855 0  0.671342 0.218358 0  0.251354 0.286186 0  0.262388 0.75153 0  0.063044 0.751571 0  0.068189 0.242962 0  0.435781 0.9053949999999999 0  0.934144 0.451133 0  0.568393 0.237622 0  0.814984 0.395506 0  0.752951 0.517227 0  0.456254 0.780699 0  0.073352 0.531116 0  0.337731 0.206071 0  0.363213 0.960371 0  0.330742 0.363592 0  0.516613 0.55705 0  0.369057 0.332992 0  0.500926 0.617309 0  0.498004 0.665534 0  0.412142 0.61178 0  0.454233 0.6366039999999999 0  0.422782 0.567496 0  0.541193 0.5214800000000001 0  0.439761 0.65557 0  0.5163 0.533672 0  0.414775 0.64562 0  0.40073 0.576135 0  0.430362 0.5880339999999999 0  0.385432 0.351492 0  0.400298 0.335397 0  0.398325 0.348194 0  0.528702 0.314885 0  0.540814 0.322334 0  0.534477 0.322953 0  0.619095 0.743583 0  0.885162 0.737972 0  0.08076 0.668849 0  0.90734 0.36634 0  0.09468699999999999 0.868937 0  0.759838 0.912152 0  0.901518 0.540898 0  0.747285 0.607479 0  0.229182 0.071641 0  0.06915399999999999 0.450091 0  0.244775 0.203309 0  0.076534 0.331755 0  0.897847 0.167826 0  0.578909 0.911415 0  0.07713299999999999 0.146341 0  0.477215 0.203448 0  0.922631 0.869341 0  0.517415 0.074785 0  0.297026 0.827793 0  0.7832710000000001 0.246505 0  0.74519 0.061079 0  0.36033 0.069068 0  0.210313 0.475228 0  0.859426 0.928758 0  0.5745479999999999 0.609182 0  0.243069 0.383398 0  0.283099 0.934598 0  0.417416 0.843141 0  0.643942 0.553164 0  0.112687 0.079336 0  0.281357 0.658386 0  0.765043 0.436177 0  0.611361 0.198486 0  0.234496 0.58911 0  0.206479 0.702638 0  0.679608 0.155818 0  0.62682 0.259978 0  0.690538 0.264164 0  0.448938 0.956308 0  0.808154 0.328403 0  0.379583 0.91913 0  0.308083 0.297769 0  0.312358 0.730249 0  0.563101 0.278576 0  0.435597 0.746198 0  0.385475 0.225229 0  0.572248 0.518034 0  0.357864 0.35422 0  0.497647 0.641694 0  0.458101 0.655768 0  0.360474 0.310727 0  0.467038 0.620139 0  0.47798 0.659909 0  0.41102 0.628072 0  0.48324 0.609015 0  0.427544 0.617941 0  0.388633 0.328253 0  0.405336 0.599404 0  0.408351 0.565178 0  0.42395 0.600985 0  0.431562 0.576523 0  0.424905 0.6551979999999999 0  0.398064 0.58782 0  0.427739 0.557934 0  0.5192909999999999 0.303443 0  0.53142 0.320293 0  0.5449000000000001 0.323642 0  0.537166 0.323513 0  0.153974 0.920841 0  0.9181859999999999 0.67343 0  0.759946 0.820588 0  0.5375259999999999 0.783091 0  0.816532 0.545843 0  0.813991 0.178083 0  0.836774 0.702023 0  0.149815 0.318856 0  0.662287 0.923338 0  0.680146 0.791192 0  0.708961 0.663172 0  0.9372779999999999 0.287318 0  0.574622 0.6881660000000001 0  0.5894740000000001 0.076262 0  0.502822 0.926683 0  0.222269 0.811068 0  0.380457 0.164786 0  0.15321 0.684154 0  0.458063 0.051413 0  0.161702 0.056026 0  0.199351 0.198818 0  0.298946 0.09553200000000001 0  0.902465 0.795949 0  0.121139 0.791477 0  0.906269 0.112287 0  0.056109 0.822332 0  0.512172 0.13237 0  0.940964 0.741805 0  0.888887 0.408777 0  0.354543 0.825964 0  0.808736 0.068638 0  0.068507 0.394071 0  0.719105 0.563843 0  0.247287 0.149664 0  0.293062 0.237128 0  0.240524 0.434997 0  0.141255 0.623289 0  0.945202 0.160621 0  0.502914 0.247629 0  0.144669 0.480811 0  0.665025 0.060817 0  0.728047 0.224344 0  0.861995 0.313312 0  0.200068 0.534235 0  0.253262 0.965623 0  0.893804 0.49307 0  0.604391 0.572456 0  0.947088 0.345347 0  0.439372 0.227307 0  0.629847 0.159823 0  0.273405 0.880181 0  0.302744 0.776823 0  0.781502 0.295365 0  0.275342 0.349602 0  0.7283849999999999 0.472798 0  0.229136 0.246478 0  0.807794 0.480346 0  0.709476 0.112786 0  0.275506 0.694991 0  0.771674 0.394419 0  0.449715 0.861802 0  0.419159 0.799696 0  0.674851 0.503139 0  0.280443 0.61016 0  0.572443 0.192538 0  0.393113 0.87525 0  0.405555 0.948428 0  0.330942 0.934103 0  0.540509 0.597101 0  0.312763 0.6689310000000001 0  0.254368 0.540179 0  0.595265 0.25915 0  0.606679 0.234099 0  0.657131 0.279138 0  0.722458 0.279478 0  0.333 0.308056 0  0.351529 0.246142 0  0.455714 0.7257940000000001 0  0.585239 0.295143 0  0.340062 0.72492 0  0.545593 0.293773 0  0.555449 0.545426 0  0.414311 0.737314 0  0.590854 0.502323 0  0.350507 0.368444 0  0.484423 0.625665 0  0.483899 0.674542 0  0.378137 0.317274 0  0.446416 0.646404 0  0.373532 0.347654 0  0.446876 0.619769 0  0.466106 0.666068 0  0.437545 0.609254 0  0.434988 0.565726 0  0.41462 0.656829 0  0.418803 0.556961 0  0.398425 0.327446 0  0.517803 0.310421 0  0.549516 0.322918 0  0.57701 0.842889 0  0.8291269999999999 0.773906 0  0.643235 0.684732 0  0.134281 0.207734 0  0.865997 0.055966 0  0.680959 0.723345 0  0.165229 0.8415550000000001 0  0.54558 0.959672 0  0.783726 0.656439 0  0.913315 0.595533 0  0.699439 0.860667 0  0.785839 0.125076 0  0.551673 0.037713 0  0.9200970000000001 0.223214 0  0.206406 0.299726 0  0.087064 0.596401 0  0.935644 0.394252 0  0.964557 0.252582 0  0.230124 0.928346 0  0.120579 0.271764 0  0.8572149999999999 0.524082 0  0.7670979999999999 0.5551469999999999 0  0.936094 0.507131 0  0.804064 0.59585 0  0.700565 0.608273 0  0.429773 0.174231 0  0.117746 0.727333 0  0.5389620000000001 0.730231 0  0.862761 0.359173 0  0.821444 0.284046 0  0.193552 0.35818 0  0.234923 0.505555 0  0.193209 0.421217 0  0.220144 0.755896 0  0.594015 0.131642 0  0.283813 0.195855 0  0.517519 0.213961 0  0.553509 0.639116 0  0.280391 0.378018 0  0.852183 0.436817 0  0.746983 0.197173 0  0.821806 0.221318 0  0.449853 0.828453 0  0.883758 0.453926 0  0.183484 0.589542 0  0.348384 0.129314 0  0.255254 0.838525 0  0.504849 0.798516 0  0.320344 0.863432 0  0.611669 0.525425 0  0.265864 0.804962 0  0.72056 0.521442 0  0.613372 0.6101220000000001 0  0.481262 0.881068 0  0.655778 0.191988 0  0.701921 0.196918 0  0.5658260000000001 0.5731810000000001 0  0.46914 0.240927 0  0.343219 0.173284 0  0.888786 0.278502 0  0.244113 0.6750930000000001 0  0.739546 0.417914 0  0.784023 0.355942 0  0.326805 0.265549 0  0.248616 0.6
[...]
<PointData  Scalars="u"> 
<DataArray  type="Float64"  Name="u"  format="ascii">-1.4774361846652965e-06  6.3080331224297607e-07  2.3843856176770091e-03  3.4798876791243935e-03  -2.1604984559740945e-02  -3.9333657134234612e-03  -4.3230891374508888e-03  5.5946263451821376e-05  -6.1217898076085803e-09  -3.0856334078402404e-09  5.1758619295429496e-11  -9.8645978919676463e-10  6.9647955478960006e-08  -7.1037650465926149e-06  -2.8305913675869212e-06  7.3595226722557905e-07  -5.3885374586876547e-06  2.1445965787882633e-05  4.8787135954725206e-05  7.1712574371120006e-06  6.2714962330976174e-06  1.7001589051564122e-06  1.5508871021984163e-04  -5.9162404877762965e-03  -7.8800876451778600e-03  -4.7810029366059043e-03  3.9884486948766490e-04  2.1869463464762994e-03  -1.2256292618449678e-03  1.6564398980262911e-03  -1.5131135127817625e-02  -1.4409872522053748e-07  -1.3716521511528297e-04  1.1153651897252245e-06  8.5789632810859721e-08  -8.4610113791820717e-10  5.3036580383599137e-10  -2.5190414391154356e-09  -5.7516512660134328e-13  -2.9406549752883226e-13  -2.9430219634048833e-15  2.3249821058759995e-14  1.0278585535788528e-14  -2.6767765089192884e-14  1.5087100603789481e-13  -1.7493993405516431e-10  -9.1320361334391868e-09  -1.1150813033843824e-07  -1.4411629212326653e-06  -4.5045927343376471e-07  -1.0800878312739787e-05  4.3759048173258704e-06  -7.6782736110633410e-06  -1.0316582063029767e-06  5.8736815177335418e-05  -6.4135932924386631e-03  -1.5471713805873968e-03  -1.7245140305886811e-02  -8.7479353563093137e-03  2.1531294684209737e-02  -2.2541946206547266e-02  4.3038193005470483e-04  7.3152171163475329e-03  3.9876658218657810e-05  -3.7325680967132947e-04  2.3828877099293729e-03  4.5132453166541797e-02  1.5909662357599288e-01  2.0937773914390054e-01  1.0109988750788432e-01  4.1683398132904878e-02  7.1632543342618829e-02  6.0308297283520731e-02  -1.6019058722973920e-02  -1.0604472435470820e-03  -1.7023411531062563e-06  -4.0292272020651424e-06  1.0000000000000000e+00  1.0000000000000000e+00  1.2691743522428483e-03  1.7840817163486462e-02  -1.5934963788509882e-06  -6.8758158668434841e-07  5.7963671373789207e-08  -1.4447185326448648e-07  3.7659532009276391e-07  5.8694981881458305e-05  -1.5982451163073494e-04  4.2850647449621179e-03  -8.2765997552464495e-03  2.2583509952207323e-03  -5.2136922316416351e-04  6.1337950878308803e-05  -3.6895210725993080e-07  -6.0057312647214143e-08  -3.3170653185887702e-10  -6.3703672530458646e-11  2.3639496419385957e-09  -3.7962855232284804e-07  -9.2384738683643243e-06  -2.0011465678850773e-06  -1.5549165511202095e-05  9.2567780220372166e-09  3.1378418279277408e-04  -3.2889933995176396e-04  4.8172728597482103e-05  5.4612492595238523e-04  -2.7068424807133147e-03  3.6962598160108063e-08  -3.7190770288600621e-08  -9.0740986883991732e-09  -1.2620312769533519e-09  9.3728822543363843e-11  -8.1669147583568153e-15  3.4993262656847670e-12  -1.7182904146257677e-06  -9.2571781883567831e-06  2.7688564456251796e-03  -3.5235476855222203e-03  -2.2392501659050060e-02  3.0068000517265206e-03  -6.0583342588989178e-04  -5.3034335155080726e-03  3.6693920713396194e-02  1.2170554207449139e-01  -8.7833674302144667e-03  -9.3584311505086615e-03  7.6448831157199695e-04  -9.9087946825815371e-06  -9.4443463460949513e-06  -8.5972399071217318e-06  1.0000000000000000e+00  1.0000000000000000e+00  1.0000000000000000e+00  1.0000000000000000e+00  1.0000000000000000e+00  1.0000000000000000e+00  1.0000000000000000e+00  1.0000000000000000e+00  1.0000000000000000e+00  7.6787290806295938e-01  8.3395268382054200e-01  7.0901131119548544e-01  3.7215494598063248e-01  -6.6343064202610935e-02  -3.2167109490344598e-02  -1.0668143896698137e-01  -3.6464501311686882e-03  1.0285485041717926e-02  2.2033911652075723e-03  -9.7473086263046085e-02  1.9260665467334701e-01  4.1750271441883963e-01  1.1973932063343945e-01  5.7452151815670027e-01  6.2047060348674821e-01  7.4081443096145017e-01  -4.6331124047592331e-01  3.1476186960603487e-03  2.1182647829419049e-01  1.4196653287220615e-01  -5.8185077339572332e-03  8.9749123966050611e-04  4.8879333550746869e-02  4.4051606059021409e-01  5.0523550624212976e-01  9.8547320954521012e-02  -1.0604871433198202e-05  1.0172045512209527e+00  5.8939229585426778e-01  5.3403874145123831e-01  1.0209972422702829e+00  9.5123744580912073e-01  9.8838331733440299e-01  9.0449291180538560e-01  -1.5031700631446452e-03  6.7263705992566392e-01  8.1848245199868042e-01  -7.1321562370135171e-03  9.4139616789103264e-02  1.0119694767857654e+00  9.8036591532618311e-01  -6.5583235639229915e-05  -3.9211444972408267e-04  -9.5098657548545252e-06  4.1211648139878407e-11  -3.9290570977398891e-04  -1.0101062846802489e-08  -1.4879515507243490e-05  -2.9126377088130729e-03  1.0016169659210425e+00  1.0019512194161302e+00  9.9544613330635423e-01  9.5550886480214570e-01  9.8798719440568783e-01  5.3841743374141449e-01  6.6191213697008200e-01  8.5502349381396314e-01  1.0032181313972988e+00  6.9140947165466607e-02  1.0101561532060319e+00  9.8824716704350613e-01  3.0048797415585055e-01  5.2164666558837758e-01  5.7179326596379365e-01  4.1742570525432809e-01  8.6434731753511351e-01  9.9902468635675201e-01  7.5590813555842595e-01  1.0244512807063495e+00  1.0061649069614187e+00  6.1669073101731131e-01  -7.9001954884088516e-04  6.0584494498048436e-01  6.0987642589218038e-01  -9.5725440408305835e-05  2.0454245841611103e-04  -3.8857129928305137e-06  -1.8058912210550679e-03  1.4677953099818789e-02  -1.7189687429705776e-08  -9.1157900114991001e-05  3.6594068805578853e-13  1.6152181331232469e-03  4.5342917026797377e-06  -1.0751507742068913e-04  -4.8015912233371946e-08  9.6932009353289458e-13  4.2669813802754623e-10  1.8575764890956835e-08  -2.1574334060318224e-09  1.1668837103019164e-10  -1.6069803981087777e-06  -1.9649300319539701e-05  -3.8457325770756258e-06  9.9427127815265903e-01  9.9849016358230580e-01  4.0326244543161444e-01  1.0026242477982565e+00  5.5926343708725401e-01  9.8276797652204273e-01  1.0023527833809502e+00  1.0266701898111201e+00  3.9502497582544083e-01  1.6405162241931479e-06  6.0308705071412583e-01  1.2833023208431724e-01  9.9588866363600093e-01  9.3250267780442453e-01  3.2735249767381153e-01  7.3045422202885224e-01  9.9948514235160313e-01  8.6401290015252141e-01  7.0476590080781554e-01  1.0227961624619040e+00  1.0118994213483095e+00  5.7349859733177111e-01  -9.9078479667058351e-06  1.0062316897073675e+00  5.5623464714561199e-01  -9.2661104919619978e-04  6.6578156836732383e-01  8.1913527507381567e-01  7.1873044474787140e-01  1.0820629804498783e-01  -6.5875484809105340e-03  9.5710201519396609e-01  9.7245458078112301e-01  -1.5140481757052080e-03  4.3847749820783755e-01  1.0093685756184108e+00  7.5042927958568850e-01  8.6815751699713473e-01  6.5818564267115909e-01  1.0150297308477447e+00  8.0255600214345624e-01  1.0074717893448642e-02  5.0703331632448168e-02  4.8937269781401282e-01  1.1187626155057989e-01  4.7042458673584764e-01  -7.2516615852010304e-03  -1.0500798576991589e-05  -1.2240668576895267e-02  1.3700119788617361e-04  -4.0248573552014935e-05  -2.5519120738220150e-05  -7.3958545022879705e-05  -1.5916268400594831e-07  5.5541142958918624e-05  1.4483732497083054e-07  -5.8170872201664586e-08  6.1645430336582614e-10  8.8314812586022761e-13  -7.5678008293477557e-09  -1.1835381843367849e-13  -5.1118691365130334e-08  -4.9821017553819514e-12  1.9903332326139672e-14  1.0451121992032979e-03  -3.9407420324710471e-06  -3.2099746474212594e-05  -5.5311320609168557e-06  5.1375842779820113e-01  9.9958205734350658e-01  1.0281102580222603e+00  8.9476763554011440e-01  9.8423639558511145e-01  9.9413020960464760e-01  9.9234368531297856e-01  2.2101005495518947e-01  9.3190170021203900e-01  1.0129365113744493e+00  1.0204869483744807e+00  1.0052691945280605e+00  7.5452152901333602e-01  9.4479674033880900e-01  8.6985172094587671e-01  6.5343533741254389e-01  7.5126601373817659e-01  4.3820819783529513e-01  5.7735866421568816e-01  9.6888377265345535e-02  5.9307389301847946e-01  6.4126193160780998e-01  9.9981567711890096e-01  5.8968666380180179e-01  9.9447606422456569e-01  5.7951131486664886e-01  9.1653704504484113e-01  9.9749148137627097e-01  9.9416343304447385e-01  6.7614386569810270e-01  1.0249588361631179e+00  -8.0970147963728076e-04  1.0053218545060729e+00  6.2406989725796036e-01  5.2140790693301831e-01  -1.4070337747123134e-05  9.5934636872848866e-02  9.9878722842452083e-01  5.5839224940451671e-01  -8.1470987464823524e-05  9.8509579586555784e-01  1.0107010440897657e+00  9.9310197038859593e-01  2.9705028106928334e-04  4.6067718270669816e-01  1.0046444362184994e+00  5.9098716202459356e-01  9.9740105892257191e-01  5.5673395003322579e-01  1.0080493431781150e+00  7.4291717363224541e-01  5.2031581074523103e-01  9.9973742852872838e-01  -2.2679549421388673e-03  8.2973099481577983e-01  5.5711191047376873e-01  1.0174262454986249e+00  1.0137933468115075e+00  7.3652862946177150e-02  8.9799075732009270e-01  8.8561338997776795e-01  6.1033782848153961e-01  6.1136408069855530e-01  3.5678057992525160e-04  9.3761936738330853e-01  8.5162889705446421e-01  6.9450556200515823e-01  7.0996093321374598e-01  1.0624910040708101e-01  1.5343962239173166e-05  -5.7114745374204228e-05  6.8819533499120122e-01  8.5388392014719883e-01  6.6150808252648641e-01  8.5172479244900579e-01  -2.5016400059746447e-03  1.6514787862672742e-01  -6.8115559555342929e-04  3.3082377359327042e-01  -4.2719214772987428e-03  1.6392611493201434e-01  2.7313147381281908e-03  -7.7795660503890939e-03  6.8737502035723982e-03  -1.2886394324780198e-06  1.4728787375061216e-04  9.6692547094385411e-04  -1.7558983106390741e-06  -1.4462031459543629e-05  -1.6404891737603004e-07  8.3904428948515249e-06  1.4374033711436643e-04  5.3905922315455762e-07  -5.9424634408476624e-13  -2.0697204302266287e-09  -2.6400950036770810e-14  -2.2830219799390650e-08  -1.4851273481813484e-06  -8.8663317297848655e-05  9.8708872247610313e-01  9.8639604214080057e-01  9.8896478763688611e-01  5.6791254759857490e-01  1.0294854911782196e+00  1.0133365288304204e+00  6.1436509871044853e-01  7.3329584435894091e-01  9.9609296120207014e-01  1.0037574212200280e+00  1.0069627183624290e+00  1.0273455512183822e+00  6.3389946024475430e-01  1.0052635949425957e+00  3.0604485102965828e-01  3.6557391688078020e-02  1.0024803367353876e+00  9.8983427730951690e-01  6.5305439796256182e-01  4.4195904997001056e-01  9.9331697659287954e-01  1.0291135579057473e+00  1.0007021291907070e+00  9.8608915035369415e-01  1.0039902204520119e+00  7.9095023066524406e-01  5.7034924028925971e-01  7.0771560124744515e-01  9.8732209407903515e-01  1.0134730268901779e+00  1.9186162384066036e-02  8.6957405161072509e-06  7.8216044717512338e-05  5.9127599893005933e-01  9.9282468085971631e-01  6.2790346970387168e-01  7.6425833061381421e-01  5.2157811219393468e-01  2.8138649000177707e-05  9.9048986789759663e-01  1.0257487279033410e+00  9.9021470968672298e-01  8.2520093309608689e-01  1.0005253290060687e+00  -1.7273413890979187e-03  7.2498866375854110e-01  7.0320707663926518e-01  8.5357677911098295e-01  7.8513328843444086e-01  3.5254549746382324e-01  6.5200584585962484e-01  9.6739067317998939e-01  7.4262785647306284e-01  9.1115867817715468e-01  1.0063828742350016e+00  1.0092931037730664e+00  2.7446370350898974e-01  5.2268975673911999e-01  6.9424355331219290e-01  1.0018495704607326e+00  1.0495619238009343e-01  5.2788578534971309e-01  9.5327015505504520e-01  8.1513989485871879e-02  -3.9068471399261322e-04  1.0046235205295238e+00  1.0066672237054151e+00  -1.1148485110904455e-03  5.0425942632347676e-01  5.7172735185798007e-01  6.9893032233604835e-01  -1.6328284949660889e-05  5.7751321711419801e-01  9.9937740420882670e-01  9.4189502274797365e-01  7.8698785048273323e-01  -3.1079911531721465e-03  8.9970619009338626e-01  8.7087222056873514e-01  -1.0378192432959347e-06  -1.0215314858271602e-04  4.1693495297574118e-01  9.7864973326265570e-01  8.9165926795683123e-02  2.8213927323252189e-02  2.3710602929068930e-01  2.1995509127954258e-01  2.9260941724086270e-01  5.5521136803109195e-01  -1.9354366032363730e-03  4.5630163398456408e-01  6.3894763034199287e-01  3.7170633428039571e-02  8.9153570108196212e-01  3.9260249078050485e-01  2.9292085273472912e-01  2.4469467274095158e-01  8.6541445758954516e-01  4.6274013427079153e-01  1.2642049618694398e-01  6.4040817406693484e-01  8.7844298684635502e-02  6.5623889687333348e-01  -1.9384793747606162e-02  1.6075574152685644e-02  -6.2854169777990963e-04  -2.4991752901659756e-03  1.9985902933147568e-03  4.9139095481832575e-02  -7.0012736559928087e-08  6.7999013556937511e-03  -2.0048709588197032e-07  -2.1792714470137756e-06  9.9125155957707434e-01  9.9768475846339399e-01  1.0014426747360159e+00  9.4697318719017454e-01  9.8971216999183376e-01  6.1371396305092785e-01  9.3231514563676376e-01  9.1467279204591201e-01  9.4208893879918720e-01  9.4657429330877840e-01  9.9009855078777143e-01  7.4791855224942672e-01  7.7301343899165076e-01  4.1378641312388796e-02  7.8905358732055464e-01  1.0213119594577880e+00  8.7223490185427155e-01  9.8443834746411019e-01  8.9934050962084144e-01  4.3603815331264079e-01  1.0006379190165842e+00  6.5892330611560757e-01  8.8991063400669868e-01  7.6421478697972001e-01  -4.7129197588279007e-07  1.0247830203189432e+00  1.0014666423910019e+00  3.8519420097277107e-01  1.0197743984976118e+00  9.9590334114732904e-01  8.5449523324551258e-01  -3.2739446138721431e-05  1.0134218396432864e+00  1.0989196057368199e-01  1.0059358268313403e+00  6.2820708920934321e-01  1.0127237577609036e+00  8.9653384713975592e-01  9.8375202295907938e-01  9.8827483431064755e-01  6.4859356951570291e-01  6.0990981302513880e-01  5.9268575198961992e-01  6.6049943474892747e-01  4.2791652540811576e-01  4.8190898868616888e-01  6.1135271909413191e-01  1.0236359967194353e+00  1.0179942602709995e+00  5.2416557802431485e-02  2.1626218232097574e-01  9.6263741649104129e-01  9.2928265507994753e-02  7.8244815658937128e-01  5.1374110763672031e-05  1.0193387290386480e+00  5.8024823003288883e-01  8.5618611790773099e-04  2.5592600897505841e-01  7.6539900550878426e-01  7.3315208255943176e-01  7.8666808969667124e-01  6.1149524769537411e-01  -1.0712857904330338e-05  8.7169118580376115e-01  9.9862793509919623e-01  5.5129365619409632e-01  1.6340428707253007e-02  -2.1424899425420206e-03  5.9487182391606064e-01  8.3500446895062153e-01  7.1920739266412459e-01  6.0219405270544473e-05  1.0882473566797594e-01  3.6913762965683028e-01  3.2150554273544163e-01  9.6354864502423743e-01  3.8977069860310742e-01  9.6194198674995524e-01  2.0210390761664346e-01  -3.0382156037730527e-02  -3.0132212468728355e-03  1.8207306742613863e-01  4.3080474984238848e-01  5.3328327547847942e-01  2.7861953485581185e-02  2.3015160180211686e-01  7.6811806737007937e-01  5.5735471646670531e-01  -7.4865343812934625e-03  3.9857557095377366e-01  -2.0615510372100940e-02  2.2828749863801151e-01  5.7674222846240981e-06  5.3299583710149774e-05  1.3112359513472739e-02  4.8448185343963224e-01  8.2931887147909104e-03  3.3202511233096349e-01  3.9178375625636686e-01  4.5440913779429366e-03  2.6239555480817789e-01  -2.7441049029119716e-03  -6.2508535459211264e-05  1.1860793014094468e-04  -1.8856594858150566e-04  6.4943846660813687e-01  9.8625348747784380e-01  9.6778748311496299e-01  8.0560207363383773e-01  1.0309462078636287e+00  -2.9027197236944267e-06  8.5006685304745055e-01  6.3195687244574827e-01  5.2780095835215779e-01  1.0160206584639879e+00  1.0201767316763835e+00  7.9460238166233821e-01  1.0255070334795764e+00  9.9636067843811216e-01  -2.2203387510446698e-06  6.7792538759455534e-01  1.6725587417184903e-01  5.9784980171074031e-01  6.8881610473840615e-01  2.4457854172727414e-01  5.9488344560420225e-01  9.7375861501654037e-01  5.6057889859849752e-01  2.7104909420181056e-01  6.2551871865744624e-01  3.5194780351690819e-01  3.9050470751656929e-01  2.7341886611714234e-02  1.2470463033493364e-02  8.1102261273378373e-01  1.0063263826418980e+00  3.6160686193646666e-02  1.0069270543077444e+00  1.0321723149301074e+00  7.0585326897695910e-01  5.9140627519062294e-01  -2.1427264978698621e-05  6.2635711711170827e-01  9.9501513133920061e-01  4.5641773729474810e-01  9.3706600501651416e-02  7.9990178927125966e-01  6.9549340587856057e-01  6.6841124315458245e-01  2.8490148775867138e-03  6.9038423296559692e-01  6.6208956600723390e-01  1.3981899021943331e-01  4.4229736882814286e-01  8.9863933763035608e-01  9.9781825785923772e-01  9.8670501397775434e-01  1.6070734604957207e-01  5.2658148727822374e-01  4.0553279023145639e-01  5.6763827860067995e-01  5.9610848283877571e-01  -1.6788057586978187e-02  1.7083420766843223e-02  5.1533420107471965e-02  -8.5359652922248116e-03  -5.4233719184378900e-05  1.9737527151839615e-01  3.8267291642102952e-01  1.7863766679790602e-01  -1.0121541984667934e-02  7.0483716190737913e-02  6.2842658340524493e-01  -2.0672297576247094e-02  7.7116424329073667e-05  7.6487026165004990e-01  8.8726274907435521e-01  6.7680694921854745e-01  -3.1673898330466820e-02  2.0696859661306112e-02  4.1152862089493680e-01  1.4973250655014042e-01  -1.9685989298063632e-03  7.1196755346811816e-02  -6.0311723293595277e-04  1.1957970436642339e-03  -1.0543218356641047e-03  9.8162978010596857e-01  6.4214656553887939e-01  5.9147678354504496e-01  6.6649476151456544e-01  5.5950612194699068e-01  5.0601825598671013e-01  2.7314272637854881e-01  1.2550406828483734e-01  6.0777076532148677e-01  4.1064800383580108e-01  8.7848468392776136e-01  6.0217804392981589e-01  7.6209969527883592e-01  1.0031013595370342e+00  2.0401150446475083e-01  2.9065211043699957e-01  2.4562623008258994e-01  3.8583863091256743e-01  4.1328638370606130e-01  2.0492228027959500e-01  7.1398731783467140e-01  5.4468688822673552e-03  8.8599279348458182e-01  2.9656659564361276e-01  -7.4564473528897736e-03  7.2003182320610162e-02  4.1958609194812357e-01  3.6524811704695109e-01  2.2481075584601848e-01  1.2493828437292794e-02  9.4099981987928200e-03  2.3232420276960683e-04  -1.4508040163205612e-03  3.1116077330395547e-02  2.7959622203263274e-04  1.6317161446343313e-02  3.1374885787533032e-04  5.9561715843069540e-01  1.6579523253932515e-01  4.7766330384103675e-02  4.4986486581920582e-01  9.5772656498588327e-01  3.0494032489217331e-02  4.8432718928871199e-01  5.8946482416954923e-03  3.3662089096111658e-01  2.3616290559615896e-01  9.6829991775224684e-03  -1.9940164627698406e-03  1.0143025645302306e-01  3.0765924638257763e-01  -6.9332858467217795e-06  -5.4138381079061172e-05  -1.3647991962218009e-04  1.2000221644021591e-02  7.4412083697612555e-02  -1.7555452581332982e-06  -9.7850171240599083e-07  -2.2797861710118533e-07  -2.9357332985228255e-07  5.2441117870355656e-08  4.6789730433565450e-07  -2.0506313810458178e-06  -1.6986229539627163e-05  -4.1244770978700470e-04  4.0437241832856031e-03  2.8273189709880505e-03  3.8709989948656136e-03  -7.0389251869914576e-03  3.8683460738881308e-03  5.5817683854058112e-04  -5.9472947435383410e-04  -5.0584706442553568e-04  1.5647981215578433e-04  6.5562473512159028e-05  -1.1843065274322846e-06  -1.3872622395144178e-07  -2.1365646648852841e-08  -4.7029643778526686e-09  -6.5570369587008620e-10  -3.9815166165955585e-11  -5.4156297370937809e-11  -5.5719805108269463e-10  2.1030373431995883e-09  -5.8048292483897573e-08  -4.5666785324059495e-08  3.7025016728468181e-06  -2.7663566468162280e-06  1.4639026933117939e-06  -1.7848459627223761e-06  2.2353749340290144e-06  -1.0967269171916682e-06  -3.0024013973997061e-06  6.1287449511345474e-06  2.7008507364759692e-05  1.7425975468503895e-05  4.7091609802861321e-07  3.9490016275792374e-06  -2.1877571253175186e-05  -1.0880668828144975e-05  3.7415759260073121e-05  6.4416686743905575e-04  -2.3323866223292876e-03  -4.5685046997730192e-03  -5.1639957917238499e-03  -4.4242810223478474e-04  1.1755492049209661e-04  3.1121703809180036e-04  -9.7383383585107684e-04  -4.7122836517509217e-03  3.5806016490475870e-03  1.0343303443654530e-03  -6.6436671104263849e-03  4.1933490041526726e-05  -6.2639774934237447e-05  -1.9156716923444382e-05  1.0133633100803555e-06  -1.0693529014564474e-06 