<?xml version="1.0"?>
<VTKFile type="UnstructuredGrid"  version="0.1"  >
<UnstructuredGrid>
<Piece  NumberOfPoints="2868" NumberOfCells="5400">
<Points>
<DataArray  type="Float64"  NumberOfComponents="3"  format="ascii">0.534923 0.326073 0  0.510642 0.314196 0  0.466125 0.293082 0  0.436448 0.281205 0  0.409468 0.275927 0  0.368998 0.270648 0  0.35281 0.275927 0  0.381139 0.302319 0  0.405421 0.326073 0  0.410817 0.33531 0  0.408119 0.349826 0  0.400025 0.357744 0  0.375743 0.368301 0  0.329878 0.392055 0  0.297502 0.432963 0  0.282663 0.476511 0  0.285361 0.524018 0  0.298851 0.572845 0  0.317737 0.6045160000000001 0  0.337972 0.6361869999999999 0  0.360904 0.674457 0  0.368998 0.69953 0  0.359555 0.7219640000000001 0  0.360904 0.757594 0  0.370347 0.766831 0  0.381139 0.762872 0  0.390582 0.741758 0  0.404072 0.720644 0  0.424307 0.707448 0  0.447239 0.702169 0  0.480964 0.704808 0  0.479615 0.6889729999999999 0  0.468823 0.675776 0  0.447239 0.6691780000000001 0  0.428354 0.6691780000000001 0  0.410817 0.6639 0  0.404072 0.653343 0  0.395978 0.628269 0  0.387884 0.59132 0  0.389233 0.576804 0  0.397327 0.557009 0  0.410817 0.547772 0  0.424307 0.546452 0  0.437797 0.55305 0  0.44589 0.5662469999999999 0  0.441843 0.582082 0  0.439145 0.5979179999999999 0  0.449937 0.609795 0  0.468823 0.603196 0  0.479615 0.59 0  0.489058 0.570205 0  0.494454 0.546452 0  0.505246 0.522699 0  0.522783 0.509502 0  0.55246 0.494986 0  0.586185 0.484429 0  0.615863 0.48047 0  0.64554 0.473872 0  0.6671240000000001 0.461995 0  0.683312 0.451438 0  0.696802 0.435603 0  0.703547 0.417128 0  0.7116400000000001 0.393374 0  0.7183850000000001 0.37226 0  0.7251300000000001 0.364342 0  0.739969 0.353785 0  0.7453650000000001 0.344548 0  0.7453650000000001 0.327393 0  0.737271 0.318155 0  0.7183850000000001 0.316835 0  0.7008490000000001 0.319475 0  0.677916 0.318155 0  0.650936 0.316835 0  0.610467 0.318155 0  0.57944 0.324753 0  0.559205 0.328712 0  0.5389699999999999 0.326073 0  1 1 0  1 0 0  0 0 0  0 1 0  0.532238 0.32476 0  0.528748 0.323052 0  0.52421 0.320833 0  0.518311 0.317947 0  0.503447 0.310783 0  0.494093 0.306347 0  0.481933 0.30058 0  0.452151 0.28749 0  0.392327 0.273691 0  0.379141 0.271971 0  0.360474 0.283066 0  0.369797 0.291752 0  0.391424 0.31238 0  0.399335 0.32012 0  0.40958 0.341964 0  0.393939 0.36039 0  0.386028 0.36383 0  0.364248 0.374254 0  0.349304 0.381994 0  0.315801 0.409841 0  0.292986 0.551616 0  0.350934 0.657818 0  0.360127 0.737055 0  0.360566 0.748664 0  0.385245 0.753692 0  0.396447 0.732578 0  0.466301 0.703661 0  0.459439 0.672908 0  0.418442 0.666195 0  0.400553 0.642441 0  0.39255 0.612619 0  0.389913 0.60058 0  0.392752 0.568197 0  0.444131 0.573132 0  0.458149 0.606926 0  0.5005540000000001 0.533026 0  0.571522 0.489019 0  0.632637 0.476741 0  0.689177 0.444553 0  0.708121 0.403702 0  0.715453 0.38144 0  0.732406 0.359166 0  0.7453650000000001 0.337089 0  0.72906 0.317581 0  0.629879 0.317522 0  0.59293 0.321884 0  0.568003 0.326991 0  0.55202 0.327775 0  0.546493 0.327054 0  0.542241 0.326499 0  1 0.9 0  1 0.8 0  1 0.7 0  1 0.6 0  1 0.5 0  1 0.4 0  1 0.3 0  1 0.2 0  1 0.1 0  0.9 0 0  0.8 0 0  0.7 0 0  0.6 0 0  0.5 0 0  0.4 0 0  0.3 0 0  0.2 0 0  0.1 0 0  0.1 1 0  0.2 1 0  0.3 1 0  0.4 1 0  0.5 1 0  0.6 1 0  0.7 1 0  0.8 1 0  0.9 1 0  0 0.1 0  0 0.2 0  0 0.3 0  0 0.4 0  0 0.5 0  0 0.6 0  0 0.7 0  0 0.8 0  0 0.9 0  0.535686 0.5031910000000001 0  0.753987 0.733359 0  0.167145 0.741436 0  0.173378 0.257204 0  0.733497 0.159862 0  0.554096 0.15788 0  0.849187 0.479053 0  0.488793 0.838452 0  0.138507 0.5592 0  0.30686 0.154944 0  0.348904 0.890523 0  0.058006 0.065099 0  0.06984899999999999 0.937917 0  0.93633 0.939704 0  0.934625 0.053613 0  0.343397 0.333452 0  0.473272 0.639943 0  0.433266 0.638072 0  0.415174 0.58269 0  0.533435 0.545042 0  0.390848 0.340652 0  0.53655 0.320242 0  0.127966 0.393775 0  0.83861 0.850455 0  0.635242 0.8551299999999999 0  0.852158 0.633441 0  0.653427 0.626848 0  0.861226 0.24292 0  0.166128 0.12976 0  0.216875 0.8698709999999999 0  0.458305 0.11179 0  0.84446 0.101633 0  0.202024 0.642528 0  0.644825 0.115855 0  0.671342 0.218358 0  0.251354 0.286186 0  0.262388 0.75153 0  0.063044 0.751571 0  0.068189 0.242962 0  0.435781 0.9053949999999999 0  0.934144 0.451133 0  0.568393 0.237622 0  0.814984 0.395506 0  0.752951 0.517227 0  0.456254 0.780699 0  0.073352 0.531116 0  0.337731 0.206071 0  0.363213 0.960371 0  0.330742 0.363592 0  0.516613 0.55705 0  0.369057 0.332992 0  0.500926 0.617309 0  0.498004 0.665534 0  0.412142 0.61178 0  0.454233 0.6366039999999999 0  0.422782 0.567496 0  0.541193 0.5214800000000001 0  0.439761 0.65557 0  0.5163 0.533672 0  0.414775 0.64562 0  0.40073 0.576135 0  0.430362 0.5880339999999999 0  0.385432 0.351492 0  0.400298 0.335397 0  0.398325 0.348194 0  0.528702 0.314885 0  0.540814 0.322334 0  0.534477 0.322953 0  0.619095 0.743583 0  0.885162 0.737972 0  0.08076 0.668849 0  0.90734 0.36634 0  0.09468699999999999 0.868937 0  0.759838 0.912152 0  0.901518 0.540898 0  0.747285 0.607479 0  0.229182 0.071641 0  0.06915399999999999 0.450091 0  0.244775 0.203309 0  0.076534 0.331755 0  0.897847 0.167826 0  0.578909 0.911415 0  0.07713299999999999 0.146341 0  0.477215 0.203448 0  0.922631 0.869341 0  0.517415 0.074785 0  0.297026 0.827793 0  0.7832710000000001 0.246505 0  0.74519 0.061079 0  0.36033 0.069068 0  0.210313 0.475228 0  0.859426 0.928758 0  0.5745479999999999 0.609182 0  0.243069 0.383398 0  0.283099 0.934598 0  0.417416 0.843141 0  0.643942 0.553164 0  0.112687 0.079336 0  0.281357 0.658386 0  0.765043 0.436177 0  0.611361 0.198486 0  0.234496 0.58911 0  0.206479 0.702638 0  0.679608 0.155818 0  0.62682 0.259978 0  0.690538 0.264164 0  0.448938 0.956308 0  0.808154 0.328403 0  0.379583 0.91913 0  0.308083 0.297769 0  0.312358 0.730249 0  0.563101 0.278576 0  0.435597 0.746198 0  0.385475 0.225229 0  0.572248 0.518034 0  0.357864 0.35422 0  0.497647 0.641694 0  0.458101 0.655768 0  0.360474 0.310727 0  0.467038 0.620139 0  0.47798 0.659909 0  0.41102 0.628072 0  0.48324 0.609015 0  0.427544 0.617941 0  0.388633 0.328253 0  0.405336 0.599404 0  0.408351 0.565178 0  0.42395 0.600985 0  0.431562 0.576523 0  0.424905 0.6551979999999999 0  0.398064 0.58782 0  0.427739 0.557934 0  0.5192909999999999 0.303443 0  0.53142 0.320293 0  0.5449000000000001 0.323642 0  0.537166 0.323513 0  0.153974 0.920841 0  0.9181859999999999 0.67343 0  0.759946 0.820588 0  0.5375259999999999 0.783091 0  0.816532 0.545843 0  0.813991 0.178083 0  0.836774 0.702023 0  0.149815 0.318856 0  0.662287 0.923338 0  0.680146 0.791192 0  0.708961 0.663172 0  0.9372779999999999 0.287318 0  0.574622 0.6881660000000001 0  0.5894740000000001 0.076262 0  0.502822 0.926683 0  0.222269 0.811068 0  0.380457 0.164786 0  0.15321 0.684154 0  0.458063 0.051413 0  0.161702 0.056026 0  0.199351 0.198818 0  0.298946 0.09553200000000001 0  0.902465 0.795949 0  0.121139 0.791477 0  0.906269 0.112287 0  0.056109 0.822332 0  0.512172 0.13237 0  0.940964 0.741805 0  0.888887 0.408777 0  0.354543 0.825964 0  0.808736 0.068638 0  0.068507 0.394071 0  0.719105 0.563843 0  0.247287 0.149664 0  0.293062 0.237128 0  0.240524 0.434997 0  0.141255 0.623289 0  0.945202 0.160621 0  0.502914 0.247629 0  0.144669 0.480811 0  0.665025 0.060817 0  0.728047 0.224344 0  0.861995 0.313312 0  0.200068 0.534235 0  0.253262 0.965623 0  0.893804 0.49307 0  0.604391 0.572456 0  0.947088 0.345347 0  0.439372 0.227307 0  0.629847 0.159823 0  0.273405 0.880181 0  0.302744 0.776823 0  0.781502 0.295365 0  0.275342 0.349602 0  0.7283849999999999 0.472798 0  0.229136 0.246478 0  0.807794 0.480346 0  0.709476 0.112786 0  0.275506 0.694991 0  0.771674 0.394419 0  0.449715 0.861802 0  0.419159 0.799696 0  0.674851 0.503139 0  0.280443 0.61016 0  0.572443 0.192538 0  0.393113 0.87525 0  0.405555 0.948428 0  0.330942 0.934103 0  0.540509 0.597101 0  0.312763 0.6689310000000001 0  0.254368 0.540179 0  0.595265 0.25915 0  0.606679 0.234099 0  0.657131 0.279138 0  0.722458 0.279478 0  0.333 0.308056 0  0.351529 0.246142 0  0.455714 0.7257940000000001 0  0.585239 0.295143 0  0.340062 0.72492 0  0.545593 0.293773 0  0.555449 0.545426 0  0.414311 0.737314 0  0.590854 0.502323 0  0.350507 0.368444 0  0.484423 0.625665 0  0.483899 0.674542 0  0.378137 0.317274 0  0.446416 0.646404 0  0.373532 0.347654 0  0.446876 0.619769 0  0.466106 0.666068 0  0.437545 0.609254 0  0.434988 0.565726 0  0.41462 0.656829 0  0.418803 0.556961 0  0.398425 0.327446 0  0.517803 0.310421 0  0.549516 0.322918 0  0.57701 0.842889 0  0.8291269999999999 0.773906 0  0.643235 0.684732 0  0.134281 0.207734 0  0.865997 0.055966 0  0.680959 0.723345 0  0.165229 0.8415550000000001 0  0.54558 0.959672 0  0.783726 0.656439 0  0.913315 0.595533 0  0.699439 0.860667 0  0.785839 0.125076 0  0.551673 0.037713 0  0.9200970000000001 0.223214 0  0.206406 0.299726 0  0.087064 0.596401 0  0.935644 0.394252 0  0.964557 0.252582 0  0.230124 0.928346 0  0.120579 0.271764 0  0.8572149999999999 0.524082 0  0.7670979999999999 0.5551469999999999 0  0.936094 0.507131 0  0.804064 0.59585 0  0.700565 0.608273 0  0.429773 0.174231 0  0.117746 0.727333 0  0.5389620000000001 0.730231 0  0.862761 0.359173 0  0.821444 0.284046 0  0.193552 0.35818 0  0.234923 0.505555 0  0.193209 0.421217 0  0.220144 0.755896 0  0.594015 0.131642 0  0.283813 0.195855 0  0.517519 0.213961 0  0.553509 0.639116 0  0.280391 0.378018 0  0.852183 0.436817 0  0.746983 0.197173 0  0.821806 0.221318 0  0.449853 0.828453 0  0.883758 0.453926 0  0.183484 0.589542 0  0.348384 0.129314 0  0.255254 0.838525 0  0.504849 0.798516 0  0.320344 0.863432 0  0.611669 0.525425 0  0.265864 0.804962 0  0.72056 0.521442 0  0.613372 0.6101220000000001 0  0.481262 0.881068 0  0.655778 0.191988 0  0.701921 0.196918 0  0.5658260000000001 0.5731810000000001 0  0.46914 0.240927 0  0.343219 0.173284 0  0.888786 0.278502 0  0.244113 0.6750930000000001 0  0.739546 0.417914 0  0.784023 0.355942 0  0.326805 0.265549 0  0.248616 0.6
[...]
<PointData  Scalars="u"> 
<DataArray  type="Float64"  Name="u"  format="ascii">2.2667684392728080e-02  2.9651739137363291e-02  4.5174757034731981e-03  3.1747408946271753e-02  -7.5880215408352034e-02  7.2952083707784790e-02  5.1870396680400575e-02  -1.7812910651202737e-03  5.2715386170064843e-07  2.9575880695213889e-07  1.0147920117235945e-08  3.6291165106666622e-07  3.0336720368660220e-05  -7.9861848934749066e-04  -8.5113018272095010e-04  -1.4732725842049453e-05  -5.1381095366300367e-04  2.4164478661552703e-03  4.1306725899324173e-03  1.3439455652075577e-03  7.9890864714529046e-04  -3.9665535131685175e-03  -2.8934721839205126e-04  2.5834539510834725e-01  2.9004308378847909e-01  2.1281210678131166e-01  1.7511745235466561e-01  1.5896547652667764e-01  1.8708614063033702e-01  8.0735545273091597e-02  3.4820041796464252e-01  1.5488959285430132e-01  1.5557911571772482e-02  -3.8098509386008091e-03  3.8921601713576251e-03  -3.2435263180018024e-06  -3.3094407251631349e-05  -4.1560102618800801e-05  -2.1504672249187468e-07  -3.9969256737917019e-08  1.3206344854811791e-09  7.6584521212759158e-09  -2.0688361541963878e-09  9.3642107176817773e-10  -5.0579651001668497e-10  2.0629504522798520e-07  1.2023150405151166e-04  -2.1455426276790267e-03  1.9024396123679777e-04  3.8820847467317440e-02  -1.4394133485037773e-03  1.1721603783009963e-02  -1.6229755054867534e-03  -1.5761049606214939e-02  7.9171462996194906e-03  1.0027382684361416e-01  5.3453423716692905e-01  2.7835735945328383e-01  6.1650240867828443e-01  5.6871284939431987e-01  1.1984680932801597e-01  7.9127693836549863e-03  1.6799611794806411e-03  1.3901617330316146e-01  2.1703826359965731e-01  6.4831966699145926e-01  7.1356598457634079e-01  8.2390174684137696e-01  8.7630146354835792e-01  8.0805202239035245e-01  7.5281414532697999e-01  8.1411867113489644e-01  8.1959425738818348e-01  5.9619890327100344e-01  2.8314756431105526e-01  5.5971608947384267e-02  3.2767236595883827e-02  1.0000000000000000e+00  1.0000000000000000e+00  -8.4331685361553527e-02  -2.1561532366357522e-01  2.5483213891579429e-02  2.2043308769593650e-02  2.0674826695172562e-02  2.7006005836198610e-02  2.9029780646064665e-02  2.2582357220536031e-02  2.4096025608555768e-02  2.9236816874421034e-02  5.3643541827386773e-02  1.8978924852884622e-02  1.4328029502808677e-02  -5.0016857820392125e-03  -3.7815435442229742e-05  -2.5283598198635012e-06  1.8055660679416443e-07  3.1879377043200944e-07  -2.9919703307095041e-06  4.0960049828689610e-05  -6.2908900716456798e-04  -1.0172562765029206e-03  -2.2497687056959289e-03  4.2565923522046376e-04  3.6684776218274047e-02  1.6080068461969318e-01  1.3380141035712323e-01  1.8219123260056391e-01  1.9353726880136307e-01  -6.7904765079002561e-04  -2.8896352410717968e-04  1.5923587104552426e-04  1.2304498918254413e-05  3.6406321394455725e-06  2.4529368084827639e-09  -2.0065441637945402e-07  -4.9563326660100378e-03  2.7621372180899060e-03  -7.1212363957737723e-02  3.4391141728623920e-01  3.6943704125063981e-01  -5.0778222475399296e-03  4.0049803694484652e-02  4.4075615703990889e-01  6.8538860965990744e-01  8.2744510765782542e-01  7.0111062358277254e-01  4.7191717969840186e-01  1.1555959677397064e-01  5.0732399724887037e-02  4.8654013701187236e-02  4.4716611573204008e-02  1.0000000000000000e+00  1.0000000000000000e+00  1.0000000000000000e+00  1.0000000000000000e+00  1.0000000000000000e+00  1.0000000000000000e+00  1.0000000000000000e+00  1.0000000000000000e+00  1.0000000000000000e+00  9.7162996310253569e-01  1.0032133547874524e+00  9.9909659434777243e-01  9.8138075547993819e-01  6.4705954584712100e-01  3.4976249544292948e-01  4.0519823721179504e-01  -5.9452419864638069e-02  -1.5822486855787815e-01  -1.6878674752861855e-01  4.8843538779225554e-01  9.6139620905162637e-01  9.8261617888663988e-01  9.5079173942015605e-01  9.9926371509206213e-01  1.0008335431430835e+00  1.0353690504763384e+00  1.7481532525641158e-01  7.2172267240644394e-01  1.0536332093237948e+00  1.0289059986694182e+00  4.8692843980919109e-01  -9.0611170176642698e-03  9.6485834346632715e-01  1.0138669462918795e+00  1.0006465781346210e+00  9.9894703974616761e-01  -2.1296657774155153e-02  9.9926856646558326e-01  9.9182056853531186e-01  9.9156105230535652e-01  9.9971743930405221e-01  1.0126546568012615e+00  1.0001032300700272e+00  1.0022761220834395e+00  4.1495048892473535e-01  1.0027298894856547e+00  9.9357947274766312e-01  5.6970586709598936e-01  8.2810510664644776e-01  1.0048839782959194e+00  9.9467086892835499e-01  -9.6388631734663829e-03  3.3265740636242919e-01  2.1228785172774739e-02  -2.0209974706517941e-06  3.3746227400632028e-01  2.0991045355277744e-06  7.3333659351351957e-02  5.9694033486368958e-01  9.9998746834595831e-01  9.9755541062484776e-01  1.0000676657897045e+00  1.0005968577808464e+00  1.0005722337815788e+00  1.0202219600083582e+00  1.0039706996686530e+00  9.8696355857562390e-01  9.9934133146093107e-01  9.5560620383279171e-01  9.9339386208830882e-01  1.0004278571729581e+00  1.0349245451810252e+00  1.0009634181207205e+00  9.8494955585729005e-01  1.0127092868010557e+00  9.8983152835695576e-01  9.9999545273992141e-01  9.9941908124563306e-01  1.0006498187555473e+00  1.0012847769708377e+00  9.9889345441215494e-01  2.4315183033752102e-01  9.9424852294620403e-01  1.0022769816534314e+00  -6.5646596322069218e-04  9.9790984561893725e-02  -8.3800194976788611e-05  5.1598299527954183e-01  7.5229913215700683e-01  -7.6217663189740532e-04  1.4653269552418277e-01  2.6234285973369232e-07  1.6386449561576050e-01  1.3945300548864392e-02  -1.0941761640265422e-03  -3.5376900211201248e-04  1.8806874493301940e-07  -1.2515143848869865e-06  -1.3617399508944965e-06  4.6054867108009213e-07  9.1706870404720052e-08  1.0706449240878671e-01  6.6552078363182970e-02  3.5748727721772955e-02  9.9898655139330439e-01  9.9997798002852201e-01  1.0173974141575661e+00  1.0000899200972069e+00  1.0184557229140396e+00  9.9955882206220636e-01  1.0000864983862896e+00  9.9997747892881295e-01  1.0000175532925051e+00  3.5315481148788276e-02  9.9986897914243378e-01  1.0044299568597415e+00  1.0002527337711891e+00  1.0034594507062911e+00  1.0623794327214309e+00  1.0020150347308603e+00  9.9992802522511748e-01  1.0035264533783472e+00  1.0060712436462591e+00  1.0013395417052795e+00  9.9942105177022755e-01  1.0104935207885282e+00  5.5851672263176949e-03  1.0081605853575837e+00  9.9905262365189662e-01  2.4428342292135477e-01  1.0075484429036698e+00  9.9463751762188179e-01  9.9626371732185215e-01  9.3098898647042627e-01  4.8178261127064764e-01  9.9994494011054491e-01  9.9937089852079752e-01  1.7192582911210338e-01  1.0116924839408050e+00  1.0040457774615619e+00  9.9837324858316956e-01  1.0015119596066546e+00  1.0010961697393772e+00  1.0011703959486051e+00  9.9713142232140539e-01  6.2739775942221809e-01  8.6290754310567264e-01  1.0005638610674066e+00  9.1912156676794743e-01  1.0329754622907792e+00  6.4130480232964826e-01  -5.3720907341228111e-04  6.5817831297158425e-01  1.7027328182144821e-01  -3.4770989476985237e-04  8.2819035272566913e-02  4.2531060727460818e-01  -1.4717405497637703e-03  1.7083795949812311e-01  -2.0406798497073228e-03  5.1504141125383108e-06  -1.7139540872104598e-05  4.4096155936655624e-08  -6.3490167093124047e-04  6.6613674491014246e-07  -2.4927632147174268e-03  5.1881506896673325e-07  -4.4729348122639076e-09  3.2192931197510655e-01  4.6604377003962548e-02  7.6446823121577176e-02  3.8713519561519090e-02  1.0503323354331164e+00  9.9999533933001128e-01  1.0000087145940120e+00  1.0000640125660256e+00  1.0000484304071227e+00  9.9988919030830981e-01  9.9987111307976240e-01  1.0332809200904696e+00  1.0007040233577098e+00  1.0008138489255152e+00  1.0010385190742097e+00  9.9978328685562878e-01  9.9925864181857038e-01  1.0057910236280847e+00  9.9643597276557827e-01  1.0049153774761654e+00  1.0070738391325427e+00  1.0128533550671419e+00  1.0009135767608972e+00  8.5534057385780671e-01  9.8904203402621638e-01  1.0267416150413893e+00  9.9999231437624347e-01  9.9996151341298378e-01  9.9929272466885766e-01  9.8896103748657427e-01  1.0021633176674991e+00  9.9999687990127550e-01  1.0000182113453655e+00  1.0042896355757489e+00  1.0002739091126145e+00  6.0106559976438700e-01  9.9810569201970001e-01  9.9992348437095246e-01  1.0034115408788098e+00  -5.9039582669696694e-03  9.7246457769553485e-01  9.9969327304870192e-01  9.9769550988650635e-01  -4.1261405582034963e-02  9.9972805290625677e-01  9.9919990417143456e-01  9.9982567837051728e-01  -1.4895910479554577e-02  9.9098571460353813e-01  9.9982160822113808e-01  1.0018773291959693e+00  1.0000004408246510e+00  9.9783072227586689e-01  9.9033329743225640e-01  1.0065871800453938e+00  1.0018342113159162e+00  9.9905222120042791e-01  3.7029044964045144e-01  1.0004313111361154e+00  9.9345556980804972e-01  9.9945338090961056e-01  1.0023856466576717e+00  9.1204681284876832e-01  1.0014187457039441e+00  9.9805548444005721e-01  9.9788960640577962e-01  1.0078230526638972e+00  3.2596839081002658e-03  1.0066476209042061e+00  9.9063007722451091e-01  1.0059057607530584e+00  1.0094018374634406e+00  9.7033605732177908e-01  1.4964127054869139e-01  1.4947675387966752e-03  1.0028000690552561e+00  9.9718654861173572e-01  1.0020928662694060e+00  1.0018555837750476e+00  1.1128658530213403e-01  8.7676432121653025e-01  7.6375679611636271e-01  9.8506268019949461e-01  2.5609913856841116e-01  9.4946463664227332e-01  7.6077090134696201e-01  5.7193102923626760e-01  6.6439063233383400e-01  -3.1442525233904567e-04  3.3128427687188916e-01  4.4800725242813305e-01  -1.3423756350603145e-05  9.1891225228946660e-02  2.8096893134237605e-05  1.4614356522617644e-02  1.3433069701628231e-01  -1.8462378845776602e-03  -1.6690127642825288e-08  9.0440441215348011e-05  -1.5816914402336796e-08  6.1200413752549522e-07  9.6086061004086648e-02  1.1244998167914168e-01  9.9825025314317994e-01  1.0000130142551806e+00  9.9997980495411454e-01  9.8000808396968098e-01  1.0021158897223004e+00  1.0003486596883582e+00  1.0016938396604469e+00  9.9817795150581945e-01  1.0000263393603845e+00  9.9994456764286888e-01  1.0001535774216201e+00  9.9916661424684206e-01  9.9156405401501124e-01  9.9990465155292241e-01  1.0307450548388766e+00  8.9203143836126997e-01  1.0000004737718307e+00  9.9952233921502109e-01  1.0184255697994167e+00  1.0091285523007418e+00  9.9975167401425435e-01  1.0000838742601499e+00  9.9987676779446699e-01  1.0003299083345929e+00  9.9891382989196209e-01  9.9900443251609117e-01  9.8861865855046660e-01  9.9926685981493013e-01  1.0002050251293066e+00  9.9924090026796097e-01  8.3692990874417561e-01  2.7207708519348950e-03  1.3074059981677999e-01  9.9368569296896325e-01  9.9934639742390075e-01  1.0011415862673114e+00  1.0002775775341439e+00  1.0022275300491430e+00  4.0786597826279261e-02  9.9974798796725795e-01  9.9807343510078950e-01  9.9982770461195447e-01  9.9578350031578022e-01  9.9997492579857539e-01  5.6811810709344035e-01  1.0027001735397412e+00  1.0071526218640834e+00  9.9771412128567738e-01  9.9914242619020477e-01  1.0064842129527869e+00  1.0042995343382333e+00  9.9906441726209927e-01  9.9842201828334509e-01  1.0036176033324391e+00  9.9614351538879586e-01  1.0051164960921348e+00  1.0099621205879878e+00  9.9975543354796381e-01  1.0074463666206559e+00  9.9925753625469937e-01  9.6257043028024303e-01  9.8229929722892073e-01  1.0010706948108590e+00  7.8800926611105748e-01  5.7369472832055546e-01  9.9932245689248400e-01  9.9996023278842849e-01  3.4383969181273188e-01  1.0044264679093347e+00  9.9868873096761024e-01  1.0031548440029070e+00  -1.9017341343674742e-02  9.9495508613281203e-01  9.9837177247190756e-01  1.0022527245584669e+00  9.9765550161474759e-01  1.7454164362131816e-01  1.0015811294268402e+00  9.9383523774072802e-01  6.2317689951341701e-04  -1.2043597544267797e-02  9.9569551367053033e-01  9.9936292140307714e-01  9.0800859526518729e-01  7.9461298304657790e-01  1.0184107703166050e+00  9.7403900640683083e-01  9.2366618608766315e-01  1.0038541161591252e+00  3.8369893658795168e-01  1.0152788113993132e+00  1.0020812522575953e+00  8.0120227401102062e-01  1.0007859580940099e+00  1.0165652849474938e+00  9.0646443327823634e-01  9.9970999446128606e-01  9.9799347968132257e-01  1.0303245430514478e+00  8.1679897000335699e-01  1.0042877837195672e+00  8.7420879288996989e-01  9.9835822241535654e-01  4.6288833711741323e-01  6.9856266822170088e-01  1.8261040597645318e-02  3.4777338145814940e-01  4.2548382849729854e-01  8.2013792687552434e-01  1.9689176139413070e-05  5.5767858972454376e-01  -3.2196064118972405e-07  6.9887405724951612e-02  9.9989776573647182e-01  9.9827899187505398e-01  9.9871655893713662e-01  1.0077314608891108e+00  9.9996124365232608e-01  1.0015723407717303e+00  1.0015995441655268e+00  1.0006437628438172e+00  1.0045922073867457e+00  1.0105528221602096e+00  9.9985079196348492e-01  9.9947582571560467e-01  9.9956116654792027e-01  8.7702817720834647e-01  9.9885855460005046e-01  9.9900847592456499e-01  9.8965049223808921e-01  1.0009403683935874e+00  1.0007460080284989e+00  1.0083928349403004e+00  1.0002076283678873e+00  9.9971126963144208e-01  9.9698327916969254e-01  1.0030956705971115e+00  2.3155175793844731e-04  9.9941605383465681e-01  9.9981746989277409e-01  1.0162453435257572e+00  1.0006878539238833e+00  1.0003558831947117e+00  1.0008502937493766e+00  -1.5228542865607986e-02  1.0008949279739070e+00  8.3834713945745998e-01  1.0011230935813094e+00  1.0005103568952838e+00  9.9978131170095075e-01  1.0019698698915316e+00  1.0010966448351077e+00  9.9920509716226835e-01  1.0024110315594541e+00  9.9821846492382316e-01  9.9417437191704328e-01  1.0039860189604521e+00  1.0170173128236264e+00  1.0072618448976747e+00  1.0001254356602414e+00  9.9839288738974974e-01  1.0005512856217009e+00  8.4015459727303055e-01  9.8858098486129908e-01  1.0003256330630474e+00  9.5484041130764685e-01  9.9824838887778344e-01  2.3676990362160914e-02  9.9928233826321089e-01  9.9501488451477915e-01  6.7352198426004173e-01  1.0053240703565622e+00  1.0027373913276696e+00  1.0012451188748046e+00  9.9742505085424071e-01  9.9870014208339097e-01  -6.9880084570508438e-03  1.0009190971620183e+00  9.9878488009326905e-01  9.9925095290431909e-01  7.2271940675046153e-01  5.8221955087447175e-01  1.0008683692069418e+00  9.9888876223228296e-01  1.0001288772005230e+00  -1.3578910135687924e-02  7.1108405454696333e-01  1.0058115460023385e+00  9.6881604104851982e-01  9.9923184107723084e-01  9.7776410215591225e-01  9.9973368824434616e-01  9.3887580327486186e-01  4.6249923806198473e-01  4.8033554961888164e-01  9.7160874012473286e-01  1.0066493076891327e+00  1.0009264752860558e+00  6.7738348544709004e-01  9.9831697479207326e-01  9.9816286918593544e-01  9.9984407256394670e-01  5.2470659671102360e-01  9.7063166538261858e-01  5.1596416631614750e-01  8.7128659176846102e-01  2.5538475951342632e-01  1.0850065424924604e-01  5.7306728649857430e-01  9.7997647720223158e-01  5.7640140282952712e-01  9.9102183013701073e-01  9.5956800613304372e-01  6.4212245264604639e-01  9.8239419308973475e-01  4.1686019588974677e-01  1.4749739601401785e-01  2.6349910374743651e-01  1.2951130882764378e-01  1.0260344091177456e+00  9.9983808919174078e-01  1.0012288691427011e+00  9.9723698780737102e-01  9.9958405543229611e-01  -2.5018422222225473e-04  9.9933726846058990e-01  9.9750263201116263e-01  1.0009277393816449e+00  9.9945457725609488e-01  1.0010316813251192e+00  9.9865981961336059e-01  9.9873815509943420e-01  9.9871413061315040e-01  -3.6063269441095490e-04  1.0004012236671720e+00  9.9308022299481125e-01  9.9693809751732632e-01  1.0018584828732868e+00  1.0105601107402939e+00  9.9663351408067613e-01  9.9742876854392770e-01  1.0096835012875547e+00  9.5007085768042843e-01  1.0022288279083000e+00  1.0058524924538972e+00  1.0411723011236278e+00  8.1969177179488806e-01  7.7059224291318795e-01  9.9751481177005019e-01  9.9900216106381012e-01  7.7622405182350374e-01  1.0000383290805033e+00  9.9971699871815722e-01  1.0050308052827952e+00  9.9643957941316241e-01  -6.2237729759248885e-03  9.9443491125232109e-01  9.9825102835117663e-01  1.0146059727023919e+00  8.2817285862138834e-01  9.9700522677994818e-01  1.0027597170175093e+00  9.9977620186400529e-01  6.5988115022297456e-01  1.0039378334896423e+00  1.0042564995263987e+00  9.4063987976176855e-01  1.0100112721038705e+00  1.0025613134765035e+00  9.9926197487230406e-01  9.9911389821826935e-01  9.6066102211674298e-01  1.0018244214448204e+00  9.6716526860771390e-01  9.9755383871461778e-01  1.0017581434598026e+00  4.5549816158683520e-01  6.7715708998594537e-01  8.3780251389569593e-01  3.7128307389589515e-01  2.0837319315033247e-03  8.6746849237499835e-01  1.0010761503161421e+00  8.7232203770420413e-01  3.8899850766814786e-01  8.7438579072997036e-01  9.9982288853109647e-01  4.0061428300014368e-01  3.0477226931905865e-01  1.0019692105110576e+00  1.0020109460043296e+00  9.9913313442749341e-01  3.6301935475949687e-01  6.9271368267994859e-01  9.6330486869078447e-01  9.1971274870282105e-01  4.6615040434290128e-01  8.5173477923758889e-01  3.3360160400096489e-01  4.0381704455002398e-01  2.8722932144068547e-01  9.9944696871594696e-01  9.9893920045444495e-01  9.9904553035876476e-01  9.9987764366124376e-01  9.9893357442765318e-01  1.0024831416612705e+00  1.0172877088964101e+00  9.7121895655780488e-01  9.9815224568225547e-01  1.0166257263829392e+00  1.0012401194981273e+00  9.9707830767183447e-01  1.0001566119275103e+00  1.0001543140217635e+00  9.8122910425558374e-01  1.0077703516306793e+00  9.2049614264533386e-01  1.0079615973279890e+00  1.0145627323350190e+00  1.0106548428183302e+00  9.9929827212955202e-01  7.2807761804077265e-01  1.0015865640610129e+00  8.9363862034373975e-01  5.6676740774619672e-01  8.7088320951383136e-01  1.0036713475148686e+00  9.6152424383053514e-01  8.8629427000539385e-01  6.3764328720023000e-01  6.1490483086812997e-01  4.5586458064164542e-01  2.4695848376480634e-01  7.4822871073184016e-01  3.2649359558877994e-01  6.5391894005744300e-01  2.8451427721869510e-01  9.9657197774365758e-01  1.0032298271774593e+00  8.5362198549729540e-01  1.0120039256439139e+00  9.9994881630709787e-01  7.3628753030444949e-01  1.0086650349213855e+00  6.7612798218699632e-01  9.3781394678553798e-01  9.7951014138676262e-01  5.9095171113641398e-01  3.0783917250749515e-01  9.1417538722776082e-01  9.3680440346806337e-01  1.5662115398906218e-01  1.7861134504124931e-01  1.6534841748389470e-01  6.7669063697660792e-01  8.5664166056495950e-01  2.5206857526847953e-02  2.3069561122878914e-02  2.1232466436398877e-02  2.8809407833013393e-02  2.5312404537795499e-02  3.9309605551462658e-02  2.1347732523030676e-02  2.8041162087622293e-02  -9.6344633929864570e-03  4.2570121014038745e-02  2.0270955349915042e-02  -1.9110998379652015e-02  -2.2606152527260941e-02  -1.2672608375615790e-04  3.4562360019539377e-02  4.8024934550094933e-02  1.9348253786394955e-02  -3.5432050277964412e-03  -3.3457189167276111e-03  -2.3489593875415798e-04  -8.9298607319454978e-06  1.0840792369550849e-07  3.6170083696832344e-07  2.4830732857400583e-07  7.3506012739583165e-08  1.1732608259347404e-07  3.3197815763422812e-07  -7.6828620678307323e-07  1.8111873841394969e-06  6.5555173786019421e-05  3.0478975546438828e-04  -8.1766828011608906e-05  -5.3395038970334603e-04  -6.1643952179008714e-04  -3.7431247245859440e-04  -8.5310934957973572e-05  -4.8731403491988049e-04  -1.3283694035823540e-04  2.7815428667551821e-03  1.8200629577673193e-03  5.9085178838970789e-04  7.7572240880672964e-04  -4.5124141814038030e-04  -6.9458776348654558e-03  -6.7920141162649940e-03  7.8969993823197082e-02  2.1198789915196073e-01  2.5202963494353042e-01  2.0305774472245311e-01  1.4648173942819878e-01  1.4651739970541972e-01  1.5932514928012761e-01  2.2119568765888831e-01  3.2672436468428545e-01  1.3475356291625681e-01  8.5992166236511930e-02  2.4976988032280675e-01  1.3627822870825632e-01  7.5610630809486726e-02  1.1249637535807412e-02  5.1583973690241848e-03  -6.0488528652651698e-03  1.8681760257210057e-04  -1.3451875506762642e-05  -9.5038971324073440e-06  6.9736694305582592e-06  3.0396605098721497e-05  6