<?xml version="1.0"?>
<VTKFile type="UnstructuredGrid"  version="0.1"  >
<UnstructuredGrid>
<Piece  NumberOfPoints="2868" NumberOfCells="5400">
<Points>
<DataArray  type="Float64"  NumberOfComponents="3"  format="ascii">0.534923 0.326073 0  0.510642 0.314196 0  0.466125 0.293082 0  0.436448 0.281205 0  0.409468 0.275927 0  0.368998 0.270648 0  0.35281 0.275927 0  0.381139 0.302319 0  0.405421 0.326073 0  0.410817 0.33531 0  0.408119 0.349826 0  0.400025 0.357744 0  0.375743 0.368301 0  0.329878 0.392055 0  0.297502 0.432963 0  0.282663 0.476511 0  0.285361 0.524018 0  0.298851 0.572845 0  0.317737 0.6045160000000001 0  0.337972 0.6361869999999999 0  0.360904 0.674457 0  0.368998 0.69953 0  0.359555 0.7219640000000001 0  0.360904 0.757594 0  0.370347 0.766831 0  0.381139 0.762872 0  0.390582 0.741758 0  0.404072 0.720644 0  0.424307 0.707448 0  0.447239 0.702169 0  0.480964 0.704808 0  0.479615 0.6889729999999999 0  0.468823 0.675776 0  0.447239 0.6691780000000001 0  0.428354 0.6691780000000001 0  0.410817 0.6639 0  0.404072 0.653343 0  0.395978 0.628269 0  0.387884 0.59132 0  0.389233 0.576804 0  0.397327 0.557009 0  0.410817 0.547772 0  0.424307 0.546452 0  0.437797 0.55305 0  0.44589 0.5662469999999999 0  0.441843 0.582082 0  0.439145 0.5979179999999999 0  0.449937 0.609795 0  0.468823 0.603196 0  0.479615 0.59 0  0.489058 0.570205 0  0.494454 0.546452 0  0.505246 0.522699 0  0.522783 0.509502 0  0.55246 0.494986 0  0.586185 0.484429 0  0.615863 0.48047 0  0.64554 0.473872 0  0.6671240000000001 0.461995 0  0.683312 0.451438 0  0.696802 0.435603 0  0.703547 0.417128 0  0.7116400000000001 0.393374 0  0.7183850000000001 0.37226 0  0.7251300000000001 0.364342 0  0.739969 0.353785 0  0.7453650000000001 0.344548 0  0.7453650000000001 0.327393 0  0.737271 0.318155 0  0.7183850000000001 0.316835 0  0.7008490000000001 0.319475 0  0.677916 0.318155 0  0.650936 0.316835 0  0.610467 0.318155 0  0.57944 0.324753 0  0.559205 0.328712 0  0.5389699999999999 0.326073 0  1 1 0  1 0 0  0 0 0  0 1 0  0.532238 0.32476 0  0.528748 0.323052 0  0.52421 0.320833 0  0.518311 0.317947 0  0.503447 0.310783 0  0.494093 0.306347 0  0.481933 0.30058 0  0.452151 0.28749 0  0.392327 0.273691 0  0.379141 0.271971 0  0.360474 0.283066 0  0.369797 0.291752 0  0.391424 0.31238 0  0.399335 0.32012 0  0.40958 0.341964 0  0.393939 0.36039 0  0.386028 0.36383 0  0.364248 0.374254 0  0.349304 0.381994 0  0.315801 0.409841 0  0.292986 0.551616 0  0.350934 0.657818 0  0.360127 0.737055 0  0.360566 0.748664 0  0.385245 0.753692 0  0.396447 0.732578 0  0.466301 0.703661 0  0.459439 0.672908 0  0.418442 0.666195 0  0.400553 0.642441 0  0.39255 0.612619 0  0.389913 0.60058 0  0.392752 0.568197 0  0.444131 0.573132 0  0.458149 0.606926 0  0.5005540000000001 0.533026 0  0.571522 0.489019 0  0.632637 0.476741 0  0.689177 0.444553 0  0.708121 0.403702 0  0.715453 0.38144 0  0.732406 0.359166 0  0.7453650000000001 0.337089 0  0.72906 0.317581 0  0.629879 0.317522 0  0.59293 0.321884 0  0.568003 0.326991 0  0.55202 0.327775 0  0.546493 0.327054 0  0.542241 0.326499 0  1 0.9 0  1 0.8 0  1 0.7 0  1 0.6 0  1 0.5 0  1 0.4 0  1 0.3 0  1 0.2 0  1 0.1 0  0.9 0 0  0.8 0 0  0.7 0 0  0.6 0 0  0.5 0 0  0.4 0 0  0.3 0 0  0.2 0 0  0.1 0 0  0.1 1 0  0.2 1 0  0.3 1 0  0.4 1 0  0.5 1 0  0.6 1 0  0.7 1 0  0.8 1 0  0.9 1 0  0 0.1 0  0 0.2 0  0 0.3 0  0 0.4 0  0 0.5 0  0 0.6 0  0 0.7 0  0 0.8 0  0 0.9 0  0.535686 0.5031910000000001 0  0.753987 0.733359 0  0.167145 0.741436 0  0.173378 0.257204 0  0.733497 0.159862 0  0.554096 0.15788 0  0.849187 0.479053 0  0.488793 0.838452 0  0.138507 0.5592 0  0.30686 0.154944 0  0.348904 0.890523 0  0.058006 0.065099 0  0.06984899999999999 0.937917 0  0.93633 0.939704 0  0.934625 0.053613 0  0.343397 0.333452 0  0.473272 0.639943 0  0.433266 0.638072 0  0.415174 0.58269 0  0.533435 0.545042 0  0.390848 0.340652 0  0.53655 0.320242 0  0.127966 0.393775 0  0.83861 0.850455 0  0.635242 0.8551299999999999 0  0.852158 0.633441 0  0.653427 0.626848 0  0.861226 0.24292 0  0.166128 0.12976 0  0.216875 0.8698709999999999 0  0.458305 0.11179 0  0.84446 0.101633 0  0.202024 0.642528 0  0.644825 0.115855 0  0.671342 0.218358 0  0.251354 0.286186 0  0.262388 0.75153 0  0.063044 0.751571 0  0.068189 0.242962 0  0.435781 0.9053949999999999 0  0.934144 0.451133 0  0.568393 0.237622 0  0.814984 0.395506 0  0.752951 0.517227 0  0.456254 0.780699 0  0.073352 0.531116 0  0.337731 0.206071 0  0.363213 0.960371 0  0.330742 0.363592 0  0.516613 0.55705 0  0.369057 0.332992 0  0.500926 0.617309 0  0.498004 0.665534 0  0.412142 0.61178 0  0.454233 0.6366039999999999 0  0.422782 0.567496 0  0.541193 0.5214800000000001 0  0.439761 0.65557 0  0.5163 0.533672 0  0.414775 0.64562 0  0.40073 0.576135 0  0.430362 0.5880339999999999 0  0.385432 0.351492 0  0.400298 0.335397 0  0.398325 0.348194 0  0.528702 0.314885 0  0.540814 0.322334 0  0.534477 0.322953 0  0.619095 0.743583 0  0.885162 0.737972 0  0.08076 0.668849 0  0.90734 0.36634 0  0.09468699999999999 0.868937 0  0.759838 0.912152 0  0.901518 0.540898 0  0.747285 0.607479 0  0.229182 0.071641 0  0.06915399999999999 0.450091 0  0.244775 0.203309 0  0.076534 0.331755 0  0.897847 0.167826 0  0.578909 0.911415 0  0.07713299999999999 0.146341 0  0.477215 0.203448 0  0.922631 0.869341 0  0.517415 0.074785 0  0.297026 0.827793 0  0.7832710000000001 0.246505 0  0.74519 0.061079 0  0.36033 0.069068 0  0.210313 0.475228 0  0.859426 0.928758 0  0.5745479999999999 0.609182 0  0.243069 0.383398 0  0.283099 0.934598 0  0.417416 0.843141 0  0.643942 0.553164 0  0.112687 0.079336 0  0.281357 0.658386 0  0.765043 0.436177 0  0.611361 0.198486 0  0.234496 0.58911 0  0.206479 0.702638 0  0.679608 0.155818 0  0.62682 0.259978 0  0.690538 0.264164 0  0.448938 0.956308 0  0.808154 0.328403 0  0.379583 0.91913 0  0.308083 0.297769 0  0.312358 0.730249 0  0.563101 0.278576 0  0.435597 0.746198 0  0.385475 0.225229 0  0.572248 0.518034 0  0.357864 0.35422 0  0.497647 0.641694 0  0.458101 0.655768 0  0.360474 0.310727 0  0.467038 0.620139 0  0.47798 0.659909 0  0.41102 0.628072 0  0.48324 0.609015 0  0.427544 0.617941 0  0.388633 0.328253 0  0.405336 0.599404 0  0.408351 0.565178 0  0.42395 0.600985 0  0.431562 0.576523 0  0.424905 0.6551979999999999 0  0.398064 0.58782 0  0.427739 0.557934 0  0.5192909999999999 0.303443 0  0.53142 0.320293 0  0.5449000000000001 0.323642 0  0.537166 0.323513 0  0.153974 0.920841 0  0.9181859999999999 0.67343 0  0.759946 0.820588 0  0.5375259999999999 0.783091 0  0.816532 0.545843 0  0.813991 0.178083 0  0.836774 0.702023 0  0.149815 0.318856 0  0.662287 0.923338 0  0.680146 0.791192 0  0.708961 0.663172 0  0.9372779999999999 0.287318 0  0.574622 0.6881660000000001 0  0.5894740000000001 0.076262 0  0.502822 0.926683 0  0.222269 0.811068 0  0.380457 0.164786 0  0.15321 0.684154 0  0.458063 0.051413 0  0.161702 0.056026 0  0.199351 0.198818 0  0.298946 0.09553200000000001 0  0.902465 0.795949 0  0.121139 0.791477 0  0.906269 0.112287 0  0.056109 0.822332 0  0.512172 0.13237 0  0.940964 0.741805 0  0.888887 0.408777 0  0.354543 0.825964 0  0.808736 0.068638 0  0.068507 0.394071 0  0.719105 0.563843 0  0.247287 0.149664 0  0.293062 0.237128 0  0.240524 0.434997 0  0.141255 0.623289 0  0.945202 0.160621 0  0.502914 0.247629 0  0.144669 0.480811 0  0.665025 0.060817 0  0.728047 0.224344 0  0.861995 0.313312 0  0.200068 0.534235 0  0.253262 0.965623 0  0.893804 0.49307 0  0.604391 0.572456 0  0.947088 0.345347 0  0.439372 0.227307 0  0.629847 0.159823 0  0.273405 0.880181 0  0.302744 0.776823 0  0.781502 0.295365 0  0.275342 0.349602 0  0.7283849999999999 0.472798 0  0.229136 0.246478 0  0.807794 0.480346 0  0.709476 0.112786 0  0.275506 0.694991 0  0.771674 0.394419 0  0.449715 0.861802 0  0.419159 0.799696 0  0.674851 0.503139 0  0.280443 0.61016 0  0.572443 0.192538 0  0.393113 0.87525 0  0.405555 0.948428 0  0.330942 0.934103 0  0.540509 0.597101 0  0.312763 0.6689310000000001 0  0.254368 0.540179 0  0.595265 0.25915 0  0.606679 0.234099 0  0.657131 0.279138 0  0.722458 0.279478 0  0.333 0.308056 0  0.351529 0.246142 0  0.455714 0.7257940000000001 0  0.585239 0.295143 0  0.340062 0.72492 0  0.545593 0.293773 0  0.555449 0.545426 0  0.414311 0.737314 0  0.590854 0.502323 0  0.350507 0.368444 0  0.484423 0.625665 0  0.483899 0.674542 0  0.378137 0.317274 0  0.446416 0.646404 0  0.373532 0.347654 0  0.446876 0.619769 0  0.466106 0.666068 0  0.437545 0.609254 0  0.434988 0.565726 0  0.41462 0.656829 0  0.418803 0.556961 0  0.398425 0.327446 0  0.517803 0.310421 0  0.549516 0.322918 0  0.57701 0.842889 0  0.8291269999999999 0.773906 0  0.643235 0.684732 0  0.134281 0.207734 0  0.865997 0.055966 0  0.680959 0.723345 0  0.165229 0.8415550000000001 0  0.54558 0.959672 0  0.783726 0.656439 0  0.913315 0.595533 0  0.699439 0.860667 0  0.785839 0.125076 0  0.551673 0.037713 0  0.9200970000000001 0.223214 0  0.206406 0.299726 0  0.087064 0.596401 0  0.935644 0.394252 0  0.964557 0.252582 0  0.230124 0.928346 0  0.120579 0.271764 0  0.8572149999999999 0.524082 0  0.7670979999999999 0.5551469999999999 0  0.936094 0.507131 0  0.804064 0.59585 0  0.700565 0.608273 0  0.429773 0.174231 0  0.117746 0.727333 0  0.5389620000000001 0.730231 0  0.862761 0.359173 0  0.821444 0.284046 0  0.193552 0.35818 0  0.234923 0.505555 0  0.193209 0.421217 0  0.220144 0.755896 0  0.594015 0.131642 0  0.283813 0.195855 0  0.517519 0.213961 0  0.553509 0.639116 0  0.280391 0.378018 0  0.852183 0.436817 0  0.746983 0.197173 0  0.821806 0.221318 0  0.449853 0.828453 0  0.883758 0.453926 0  0.183484 0.589542 0  0.348384 0.129314 0  0.255254 0.838525 0  0.504849 0.798516 0  0.320344 0.863432 0  0.611669 0.525425 0  0.265864 0.804962 0  0.72056 0.521442 0  0.613372 0.6101220000000001 0  0.481262 0.881068 0  0.655778 0.191988 0  0.701921 0.196918 0  0.5658260000000001 0.5731810000000001 0  0.46914 0.240927 0  0.343219 0.173284 0  0.888786 0.278502 0  0.244113 0.6750930000000001 0  0.739546 0.417914 0  0.784023 0.355942 0  0.326805 0.265549 0  0.248616 0.6
[...]
<PointData  Scalars="u"> 
<DataArray  type="Float64"  Name="u"  format="ascii">7.5108628414960592e-09  -2.1845311064767866e-09  -1.5854937723582522e-04  -1.3758746294989188e-05  2.6412624045454190e-03  2.6148049063533333e-04  3.7280542759290366e-04  -1.1741978428040841e-06  1.0068308611218207e-10  6.0854135218439211e-11  2.0403772789510832e-13  1.8247269905720237e-11  -4.7316794159804811e-09  2.6718980378990452e-08  2.0001858408547218e-08  -8.5831667462450261e-09  6.8563537024941883e-08  -1.7408534123399135e-07  -8.0977406130552456e-07  -2.1991828494133092e-07  -1.4408601587887105e-07  -1.3158270159163684e-07  -3.1421925234586114e-06  3.1125839436978858e-04  6.5137325890949076e-04  9.6225385773584390e-05  -6.3893705025700245e-06  1.9217965782641457e-05  -7.1400724789928596e-05  -1.3263256578434536e-04  6.6683694152395296e-04  9.9314715633805554e-07  -1.8492364606007265e-06  1.2771408080819167e-09  -5.6135966272439275e-09  -4.0994003666066010e-12  9.7428508310485905e-12  -1.2528555359730810e-11  7.8729395299106013e-15  0.0000000000000000e+00  0.0000000000000000e+00  0.0000000000000000e+00  0.0000000000000000e+00  0.0000000000000000e+00  4.2830192051059429e-16  6.9899072371501182e-13  -1.8028681608807444e-11  2.1651101079039364e-09  -5.7597180254788060e-08  1.5709542700997488e-07  2.3714575203586630e-08  3.9402288814653857e-09  1.6728459035797711e-07  -2.8993423278656470e-07  -5.3674613097248830e-07  -2.0858325596140724e-04  -8.1976124551324836e-05  8.9417715271055851e-04  5.0083162449919586e-05  -2.5347862014247517e-03  6.0262851546973601e-03  2.3425564407885831e-04  -3.0042683611175764e-04  -3.6564615863124456e-07  5.2456323836564303e-07  -5.0724594968012265e-04  -8.7292914509711330e-05  -3.1554498036978228e-04  8.4211312473968045e-03  -3.1288036360816560e-03  -4.2585647149645739e-03  -7.9098293748243464e-04  -2.3454093407768969e-06  9.9324732866601351e-04  1.1803994652512344e-05  6.7454725491406216e-08  1.1529544563753965e-08  1.0000000000000000e+00  1.0000000000000000e+00  -7.0373023995092709e-05  -6.7217866256358055e-04  9.9694778061628561e-09  7.1643466536129596e-09  1.7074673995902452e-09  6.5812623886701688e-09  -6.7555513992551664e-09  -1.5011251653602842e-07  4.8587983278141396e-06  -2.3912477324726774e-04  4.1790482275539011e-04  5.6046820883888171e-06  7.1531064931394656e-05  -7.1263508118351345e-08  2.9354059764727862e-09  6.8582969443706367e-10  1.1844796071486688e-11  2.8856598662004159e-12  -7.7326522084603220e-11  -2.1723133356254172e-09  1.1817349889179447e-08  2.0073816970369314e-09  2.1447389878901957e-07  -1.0829636534951182e-08  -6.4504484575134129e-06  4.3328623826726064e-05  -1.6247971022837775e-05  -7.3615553949393135e-06  -3.3519765567739752e-05  -3.4114404792457708e-08  -1.9336317139221068e-10  -1.0065752690589389e-10  -1.2370560007252944e-11  -3.6383170408193619e-13  0.0000000000000000e+00  7.9552220144292508e-14  1.5363523101699429e-08  3.7179827149398448e-08  -7.1493383223841849e-05  7.4103601371830770e-05  2.4474053678059859e-03  -4.9852637260508145e-04  7.6757195788618889e-05  1.7654572631096397e-04  -1.4232270993199052e-03  -3.9127256933549574e-03  3.3039991180307412e-04  2.5710170621857340e-04  -9.2795329579993920e-06  2.0129948761096762e-08  1.4146461155688798e-08  1.4239581229658962e-08  1.0000000000000000e+00  1.0000000000000000e+00  1.0000000000000000e+00  1.0000000000000000e+00  1.0000000000000000e+00  1.0000000000000000e+00  1.0000000000000000e+00  1.0000000000000000e+00  1.0000000000000000e+00  4.1334834686906946e-01  4.9652380453694511e-01  4.2969093439915068e-01  5.2417900593287124e-02  -9.8926318344167569e-02  -1.0063139258237486e-02  -9.0972338424027376e-03  1.9864625774945912e-03  -7.4930994933183288e-05  5.8812018647033610e-03  -1.4001879946470838e-02  -2.3672954820176985e-02  5.2520169475880674e-02  -1.4634749347522252e-01  2.4543260364717312e-01  3.0672505425495877e-01  4.1390421714035153e-01  -3.1838342207719794e-01  -2.2110689780967580e-04  5.7196107432887586e-03  2.8951156276074831e-03  -2.1531895018374837e-05  -2.2694685406588341e-05  -5.1281197047636957e-04  3.4463029278319235e-02  5.2343625768410049e-02  -2.1660549194931996e-03  -3.4551914604467424e-06  8.0615191477391046e-01  1.7882130803085364e-01  7.9307812543326001e-02  7.5285813862769080e-01  5.5941045300156211e-01  9.0216992339298541e-01  5.4407875867408562e-01  -1.3385634628185183e-05  4.2277054202430386e-01  5.2531359938186117e-01  -5.8592933845765731e-04  -3.0046656679160277e-03  7.5663535422884609e-01  7.3937237885051932e-01  8.3446338079145025e-09  -1.0287552844810472e-05  -8.7612604437277144e-08  9.8402234319834406e-14  6.4921783165641773e-06  1.8850336553693898e-10  3.9238697912443430e-08  -4.6794285686844928e-05  8.1730604385643824e-01  6.2853104544484761e-01  9.1973317962250833e-01  5.6248601790971275e-01  9.0520976351532434e-01  8.6925497602050247e-02  4.0761440777457292e-01  5.4548187416140115e-01  8.2276946906335480e-01  -9.6110378253053163e-04  6.5165713838290684e-01  6.1131983746003238e-01  1.3712797515871848e-02  1.0111376637807021e-01  1.1753457755527377e-01  2.8024742235085637e-02  5.4282893643751784e-01  1.0032310483706643e+00  4.7581672308246559e-01  7.3810402381719076e-01  6.7531233193304696e-01  2.7422351692405428e-01  -1.3421815723772472e-05  2.3603774828882398e-01  2.8318417733554146e-01  1.5135512221578854e-07  -2.3033712324087435e-06  4.5157320411309326e-09  4.4221762125109501e-06  1.0638568177533847e-04  7.8656283476457826e-11  -1.0741069140475309e-06  -7.7175778104591690e-15  -2.1456820813609643e-05  1.2860623990694537e-08  -3.6691146475928336e-07  -7.8218560487335033e-11  -7.6970849710988966e-16  2.1305833070034154e-12  -2.9835418260634345e-10  6.0724007556988700e-11  1.5632963835059604e-12  1.4137874245379240e-07  1.9408860674856858e-08  1.8387488858075436e-08  6.0592287228890784e-01  9.3881151932857199e-01  2.7692382544623320e-02  9.5977363526600035e-01  1.0320830429068331e-01  6.0282561003431512e-01  9.8479369416548668e-01  7.5915135355518737e-01  4.0404910177366797e-02  1.4659524508740049e-08  2.5496347380187612e-01  1.9379364776081940e-03  9.2501518955941375e-01  5.6172901545529574e-01  1.6234572404566536e-02  4.5940089756615793e-01  9.1773434721641545e-01  5.6300037456959107e-01  4.3999540071438686e-01  7.6476213780566915e-01  6.4277439304581052e-01  2.0203516586201056e-01  -1.8481922305655565e-07  6.5400465723355283e-01  1.3815347784739354e-01  5.5557947527879090e-06  3.4505335298079420e-01  5.2548536586503380e-01  4.3856287947294925e-01  1.3079095378210586e-03  -2.9307491182572763e-05  5.7607711322374999e-01  5.7978699958847746e-01  2.5305726105045267e-05  4.3826496028365622e-02  6.9950607647652197e-01  4.7309396034412921e-01  5.2982171196440386e-01  3.6786770951497288e-01  6.9224462553325139e-01  5.2236072928457655e-01  -9.9939132597677712e-04  -2.7618935728025429e-03  9.6051599885092612e-02  1.0103770116814753e-03  6.5370990282150890e-02  -1.7813457597816866e-04  2.8223874004637844e-08  -4.4294279356274442e-04  2.8822070363806882e-06  1.0314228236515253e-06  -2.8442140301341104e-06  1.6446637417255756e-05  -6.9423802203231426e-10  -2.6921474608846669e-07  -9.3679262546594635e-11  2.5539268485978072e-09  -6.5113750961130836e-13  -3.7049549666053675e-16  5.1515836592854576e-11  4.4654371618066265e-14  1.8687644211378284e-10  -2.3198933486110937e-15  0.0000000000000000e+00  1.8497712830653725e-06  3.4180839162735681e-08  5.9693725203561961e-09  1.7339605214032343e-08  6.5541220809078427e-02  9.9202307812471469e-01  7.5866774288791361e-01  5.4864254149703950e-01  8.8067159104448656e-01  8.6945228058235136e-01  9.0087228609664016e-01  7.6923564930704196e-03  5.5153194283180240e-01  7.0175435978057421e-01  7.2124797521988238e-01  1.0019123873784712e+00  4.8040101848674149e-01  5.6478751708960528e-01  5.6998519875074161e-01  3.7815750497329237e-01  4.8863008983702183e-01  4.0289025727743795e-02  2.6789505265985314e-01  -2.6088500027498423e-03  2.0620350062359091e-01  2.4100823894600212e-01  9.4200534337467035e-01  2.3430877639366665e-01  8.9022359382435035e-01  1.0160008200536108e-01  5.4666042072963938e-01  9.9987403596552660e-01  9.0794261754322458e-01  3.9277062322739631e-01  6.9725125279366562e-01  7.5548783040569388e-06  6.4266865980042820e-01  3.0502044386208432e-01  9.8058203744133626e-02  1.5912612865326503e-07  1.0891008425717504e-03  9.8374301103804718e-01  1.4933468040639025e-01  -2.1606483331489867e-06  5.8064133956789776e-01  6.9307418473116755e-01  8.9755174569501062e-01  -8.5169455483381501e-06  9.1860369874427916e-02  9.5492296849531344e-01  2.2777457484510952e-01  1.0074971593366446e+00  1.3688565820151252e-01  6.3757314926220365e-01  4.8647754460550252e-01  1.0291888288288308e-01  6.3098789442052250e-01  -7.1806541973424429e-05  5.1109927957379642e-01  1.2015485649548566e-01  8.0686606159274588e-01  7.1174097023492844e-01  -1.9067753434976287e-03  5.4021006868843091e-01  5.3977711401101824e-01  2.5826121600905405e-01  2.7230376947734541e-01  -5.8598795694693159e-06  5.5553553856510118e-01  5.3245737245831193e-01  4.0759137803333678e-01  4.2891439438861906e-01  -2.2689755640005927e-03  5.7439024104760734e-06  6.6160753471283980e-07  4.0897528470477001e-01  5.3331586082337135e-01  3.6316383151175252e-01  5.2312979111705005e-01  1.8150233138358829e-05  2.9057046445713059e-03  -3.9469670525308928e-03  2.6559958839974557e-02  7.2957512781751210e-05  4.4665270021842758e-03  -1.9664423426816091e-05  1.2911800826125640e-05  -7.3407145081033393e-05  5.8050557632082555e-09  1.5954295606722497e-07  2.2896081063240367e-06  4.7835975700668672e-08  -1.2249641670259609e-09  -1.2948129128199612e-09  3.3547710968611924e-08  2.2356282650072851e-06  4.6322166237977556e-09  -3.9107637081571734e-15  -2.0082048252125458e-11  0.0000000000000000e+00  4.1797102102857371e-10  1.3414679849619672e-07  8.3743143281910915e-09  5.9025426338861908e-01  8.8819478707911992e-01  6.0163079151445642e-01  9.2903617270700969e-02  7.3203898637883347e-01  6.9616495542313028e-01  3.2220975588372447e-01  4.3762411837123633e-01  8.6090646731032738e-01  9.9427760425543199e-01  6.6707320325250119e-01  7.9171805305420107e-01  3.3478329381552613e-01  9.8573416313033269e-01  1.7104329279108797e-02  -9.6798237844843447e-05  9.9173384287682320e-01  1.0084057090320089e+00  2.3077574258531144e-01  3.5508713287303539e-02  9.0912926468317501e-01  7.5007712525406267e-01  1.0021232662171051e+00  8.8422914423773979e-01  6.5584449877896922e-01  5.1561610646050393e-01  1.2437486467887375e-01  4.3278971473837718e-01  8.7824017141539157e-01  8.1045360335370908e-01  -2.1707227819590293e-04  -1.4564613147883072e-07  8.9998382255143860e-07  1.9632190313696896e-01  5.9973740583034674e-01  3.1721393269938314e-01  4.8985382050748644e-01  8.0612389079585747e-02  4.1137884296286328e-07  8.9385935961678087e-01  7.4929252338552788e-01  8.7097275548080144e-01  5.2749670921918712e-01  9.4945156183308244e-01  -1.5249546276024416e-04  4.7496864034239583e-01  4.4152163496896440e-01  5.3862941726082614e-01  5.0657590215639192e-01  1.6868370858115229e-02  3.6311232799532162e-01  5.7734167425063354e-01  4.6906034663772966e-01  5.4465146841545631e-01  6.4684536619808342e-01  7.0082966582486306e-01  9.1625195057459634e-03  8.4206636811958266e-02  4.3503159996594060e-01  9.1439444254766922e-01  -1.0294699153018257e-03  2.1698523467376551e-01  5.6648594108528216e-01  -1.1654606137272803e-03  -1.2070126826384564e-04  6.5764603579842873e-01  6.5660888281366381e-01  6.0533431505539285e-05  9.0870852655025605e-02  1.7935052059914311e-01  4.1983795301028864e-01  -3.7534454809147428e-06  1.7767792972727661e-01  6.2112163318453406e-01  5.6293243168864571e-01  5.0842838299953630e-01  8.2154262253111812e-06  5.4394860332294159e-01  5.3641391962657692e-01  1.2588770427892599e-08  7.7905440939810399e-07  4.8151073568294872e-02  5.8698137338800893e-01  -7.6891120897288245e-04  8.5997903734722525e-05  6.0877289903029427e-03  8.2954528807125717e-04  1.1467276582159200e-02  2.1242648435844830e-01  -1.4816663838207386e-05  5.0293667669106611e-02  3.3075297972349921e-01  -1.1029490568356237e-03  5.4342446715227199e-01  3.3923676483422732e-02  3.2171992036669678e-02  6.6058366581013602e-03  5.3782831654465424e-01  6.2960856389676953e-02  -4.3675215135312995e-04  3.3509473318364491e-01  2.0081709655590837e-04  3.4932750716504157e-01  -3.9359722523371686e-04  -9.5797794435393960e-04  7.4203014345753502e-05  9.6585830182346205e-05  -1.4556360767703204e-06  -3.4856570856921600e-03  -9.0821427013091282e-10  2.7900008011005596e-06  9.4432979808099012e-10  7.0820407715506110e-08  1.0081249445634448e+00  6.2543073227211587e-01  9.1748547900145061e-01  5.5590368398039069e-01  9.0801402779321505e-01  2.9700712584165578e-01  5.5341421718488648e-01  5.5421676208917636e-01  5.5573306225981012e-01  5.5748064520630447e-01  8.7040618207308829e-01  4.6785420863893462e-01  4.9918467059045146e-01  -5.8879191229547709e-04  5.2167762216928037e-01  8.0495677731689685e-01  5.3961869220856851e-01  5.8683171933317535e-01  5.4414585528112369e-01  4.8604587532539843e-02  9.5729079803662820e-01  3.4918847005981124e-01  5.4141099232064860e-01  4.9637945642425668e-01  -3.8439232860709583e-09  8.0114970675146691e-01  8.5103798105084605e-01  2.8016750926891477e-02  7.3827698162963507e-01  8.5096485304748515e-01  5.3218030440991215e-01  2.0330310116912064e-07  7.0241623086258287e-01  -7.5529068881770539e-04  6.6879163695699784e-01  3.0189538899462054e-01  8.0988004523289103e-01  5.4334153206051294e-01  8.9131339104510265e-01  6.0553421908972671e-01  3.6055493314007647e-01  2.6332005835891231e-01  2.1086583164045564e-01  3.7106384707959916e-01  4.7931075435870808e-02  7.2176713258944356e-02  2.6886787614670699e-01  7.4454914933747152e-01  7.1170355850418865e-01  -3.0023388439340327e-03  2.5763983666883586e-03  5.6945011131502854e-01  -1.6699380042810954e-03  5.0345839009795856e-01  -4.0251282216120444e-06  7.9722610495103952e-01  1.8150749438995920e-01  -6.0237350201983975e-05  6.7536471845894600e-04  4.5825875481941691e-01  4.5780934727487954e-01  5.0877038247342299e-01  2.6493837309978679e-01  -1.9912904792827372e-07  5.2864563427705935e-01  6.3353679983482614e-01  1.5376961654178772e-01  -4.2791762995060014e-04  -2.3219561510092929e-04  2.6530362719332806e-01  5.2158135496903035e-01  4.2298102694988166e-01  -2.5583966006978314e-06  -4.3512418027968812e-02  2.7640878687367792e-02  2.2025636737667949e-02  5.7605389195947654e-01  5.6530179555602383e-02  5.6847199550724525e-01  -9.5185883477678021e-03  -1.1220845677785180e-03  -1.1760619412361868e-03  2.3327631936714336e-04  3.8109353753260661e-02  1.5426666605713621e-01  -4.0343686747601340e-03  6.8097145681412967e-03  4.8487978093255352e-01  1.6386956951204099e-01  1.0779074801593631e-04  7.3973435763254630e-02  -5.3930636715863048e-03  2.0762529687261065e-03  6.8196596245223235e-07  -2.4814014612569006e-06  -5.8816158732812987e-05  1.7358306507203494e-01  -4.1986006646404538e-05  2.7883551986306473e-02  8.4599084270414959e-02  -5.3985467980792717e-04  1.3979424007051870e-02  7.5985714688973243e-05  2.2453012156797726e-07  4.1869322201542033e-07  2.8824523983128914e-07  3.1141193237607762e-01  8.9139276818533919e-01  5.7304194434721223e-01  5.1211194292594064e-01  7.6528397616082888e-01  3.7229212387931743e-08  5.2682935191652902e-01  2.9744937974214031e-01  1.2270488370727825e-01  8.0945825431487772e-01  7.3400715073351275e-01  4.9696947758379584e-01  7.8118939818931932e-01  8.5546771615886552e-01  2.9445710929095969e-08  3.8195006775275192e-01  -4.8987594339214248e-03  2.1494503857506411e-01  4.0058505787237547e-01  -4.0618371142345988e-03  2.2333282719210990e-01  5.8295416164428826e-01  1.8803986844728912e-01  1.9547541880921854e-02  3.0882422451961278e-01  2.8783719030555915e-02  3.1032806197807846e-02  -1.5991102135592961e-03  -1.7783474102223316e-03  5.1790445316547162e-01  6.6616266857489204e-01  -4.2562943131378237e-03  6.6503699806422489e-01  7.4606135559276709e-01  4.3863856534591067e-01  2.1565487057609950e-01  2.2922043809209835e-07  3.2784556220187233e-01  6.1830265146534069e-01  5.3289349483914623e-02  -2.4258847368914920e-04  5.0050106606944489e-01  4.1333780414451765e-01  3.7086974014952789e-01  -1.0548559393609339e-04  4.1164556085151660e-01  3.7502901752228962e-01  3.5703434486379425e-03  5.5475876148999910e-02  5.4108785415607241e-01  6.3720945421309805e-01  6.0532873324719372e-01  -5.2823363658705956e-04  1.6087779945769881e-01  8.6379441766741283e-02  1.6324649880412578e-01  2.7619369631364560e-01  -2.4619144252627364e-03  -7.9551337893695730e-04  3.0015110957817641e-04  -4.7428511426606812e-03  5.7546195920948142e-07  -2.4267176101101305e-03  3.7523988318440636e-02  -2.5516242752816288e-03  -1.2198883412896956e-03  1.0228768999165814e-03  3.1753247470236412e-01  1.0663053287434158e-03  5.4619975244063805e-06  4.5403762881833620e-01  5.3876969698280142e-01  3.7130179579856248e-01  -1.0711422078854649e-03  -1.1041091008050221e-03  1.0536493363884056e-01  1.2625345881101095e-03  -5.3435955946721866e-05  6.1222193207603629e-04  -1.3287199204262322e-05  -6.0249748454152368e-06  1.0979745627048910e-05  5.8528153103294900e-01  3.3647358138749450e-01  2.1917076129174545e-01  3.6726966565833180e-01  1.6647097864072563e-01  9.5127819403748912e-02  8.1091041508267094e-03  -4.2186262635187021e-03  2.5526565267872675e-01  4.0538814382781396e-02  5.3478420941921034e-01  2.3892787826751705e-01  4.5388175278410359e-01  6.6440674992148518e-01  3.4740326845060319e-03  8.8711040667826986e-03  7.0294324356575530e-03  3.0517950187232509e-02  3.7741847290341426e-02  -9.7941054822725093e-04  4.2106945074443664e-01  3.0231783904844539e-04  5.3575485219502994e-01  3.5618915491996759e-03  4.5488084134607561e-04  8.3025463001054189e-04  4.6406081092272504e-02  5.2522300872005712e-02  1.1366492795723881e-02  1.6969720982101936e-06  -6.0122258955878590e-04  3.4189552304478262e-05  -3.2832618056877791e-06  1.2604001397131248e-04  -7.1919485922700144e-06  -1.4844558585005511e-04  -5.1741849249583621e-08  2.2419889126187534e-01  -3.7553030957231371e-03  -1.9505424538116235e-03  5.8021356221789597e-02  5.7078031920383143e-01  -1.3184979576571414e-03  8.3854294563057236e-02  -7.6028939486420325e-05  5.4676679241044447e-02  1.1502484059256033e-02  3.2257349486927502e-05  2.7732478254206652e-05  -2.5131206670651958e-03  3.5298432158072782e-02  9.8121213986823348e-08  -4.4970077343536600e-07  -6.1367900176790048e-07  4.9416022978297056e-06  1.0152952780711942e-03  9.6073578580942571e-09  8.1278106521510866e-09  4.7254469862346595e-09  8.5541360644204509e-09  2.9212300099872173e-09  -7.2943747491013441e-10  -1.7174600160314093e-08  7.6051024290388988e-07  2.7742009376688421e-05  -1.8262565238112209e-04  -9.2002334493172816e-05  4.5792523170595681e-04  6.7688254326738297e-04  9.3560122279711427e-05  9.2106331311840798e-05  1.7942892005324879e-04  9.6799197469595505e-05  5.4396668537976312e-06  -1.2429572685728213e-06  1.0066708470504827e-09  1.4468170019615842e-09  2.9328394698936238e-10  8.4713884001808156e-11  1.8349090598086823e-11  2.3040762962307648e-12  2.0209768755030009e-12  9.7622001893295614e-12  -2.0642489511986466e-11  4.9811263754079878e-10  -5.4573462215001653e-09  2.2795320367271820e-09  -1.2059140461391407e-08  3.4431022610520112e-08  1.5790521948368477e-08  -2.1435692183541457e-08  1.2457705959637444e-08  1.6458204952665675e-08  -3.5054179746630272e-07  -3.2680347727168450e-07  -4.0546890896497911e-07  -1.7500946488694049e-08  -7.9601739240562446e-08  6.8969812254965207e-07  3.7606334696345245e-07  -2.4093874811044065e-06  -1.1016219262363829e-05  1.4543982398527235e-04  3.9857918398118747e-04  2.4232285080191471e-04  -2.5504660689043546e-05  -4.2067872428213257e-06  -2.0216592071364362e-06  6.7447722441399594e-06  -5.6109949129011172e-05  1.0534942217208933e-04  -1.7660603570342537e-04  3.9582789531695747e-04  8.3107074850227842e-06  1.6216823211711949e-06  -3.6929029706631851e-07  -3.7913685612133711e-09  1.3386210923107212e-08  1.486235