<?xml version="1.0"?>
<VTKFile type="UnstructuredGrid"  version="0.1"  >
<UnstructuredGrid>
<Piece  NumberOfPoints="2868" NumberOfCells="5400">
<Points>
<DataArray  type="Float64"  NumberOfComponents="3"  format="ascii">0.534923 0.326073 0  0.510642 0.314196 0  0.466125 0.293082 0  0.436448 0.281205 0  0.409468 0.275927 0  0.368998 0.270648 0  0.35281 0.275927 0  0.381139 0.302319 0  0.405421 0.326073 0  0.410817 0.33531 0  0.408119 0.349826 0  0.400025 0.357744 0  0.375743 0.368301 0  0.329878 0.392055 0  0.297502 0.432963 0  0.282663 0.476511 0  0.285361 0.524018 0  0.298851 0.572845 0  0.317737 0.6045160000000001 0  0.337972 0.6361869999999999 0  0.360904 0.674457 0  0.368998 0.69953 0  0.359555 0.7219640000000001 0  0.360904 0.757594 0  0.370347 0.766831 0  0.381139 0.762872 0  0.390582 0.741758 0  0.404072 0.720644 0  0.424307 0.707448 0  0.447239 0.702169 0  0.480964 0.704808 0  0.479615 0.6889729999999999 0  0.468823 0.675776 0  0.447239 0.6691780000000001 0  0.428354 0.6691780000000001 0  0.410817 0.6639 0  0.404072 0.653343 0  0.395978 0.628269 0  0.387884 0.59132 0  0.389233 0.576804 0  0.397327 0.557009 0  0.410817 0.547772 0  0.424307 0.546452 0  0.437797 0.55305 0  0.44589 0.5662469999999999 0  0.441843 0.582082 0  0.439145 0.5979179999999999 0  0.449937 0.609795 0  0.468823 0.603196 0  0.479615 0.59 0  0.489058 0.570205 0  0.494454 0.546452 0  0.505246 0.522699 0  0.522783 0.509502 0  0.55246 0.494986 0  0.586185 0.484429 0  0.615863 0.48047 0  0.64554 0.473872 0  0.6671240000000001 0.461995 0  0.683312 0.451438 0  0.696802 0.435603 0  0.703547 0.417128 0  0.7116400000000001 0.393374 0  0.7183850000000001 0.37226 0  0.7251300000000001 0.364342 0  0.739969 0.353785 0  0.7453650000000001 0.344548 0  0.7453650000000001 0.327393 0  0.737271 0.318155 0  0.7183850000000001 0.316835 0  0.7008490000000001 0.319475 0  0.677916 0.318155 0  0.650936 0.316835 0  0.610467 0.318155 0  0.57944 0.324753 0  0.559205 0.328712 0  0.5389699999999999 0.326073 0  1 1 0  1 0 0  0 0 0  0 1 0  0.532238 0.32476 0  0.528748 0.323052 0  0.52421 0.320833 0  0.518311 0.317947 0  0.503447 0.310783 0  0.494093 0.306347 0  0.481933 0.30058 0  0.452151 0.28749 0  0.392327 0.273691 0  0.379141 0.271971 0  0.360474 0.283066 0  0.369797 0.291752 0  0.391424 0.31238 0  0.399335 0.32012 0  0.40958 0.341964 0  0.393939 0.36039 0  0.386028 0.36383 0  0.364248 0.374254 0  0.349304 0.381994 0  0.315801 0.409841 0  0.292986 0.551616 0  0.350934 0.657818 0  0.360127 0.737055 0  0.360566 0.748664 0  0.385245 0.753692 0  0.396447 0.732578 0  0.466301 0.703661 0  0.459439 0.672908 0  0.418442 0.666195 0  0.400553 0.642441 0  0.39255 0.612619 0  0.389913 0.60058 0  0.392752 0.568197 0  0.444131 0.573132 0  0.458149 0.606926 0  0.5005540000000001 0.533026 0  0.571522 0.489019 0  0.632637 0.476741 0  0.689177 0.444553 0  0.708121 0.403702 0  0.715453 0.38144 0  0.732406 0.359166 0  0.7453650000000001 0.337089 0  0.72906 0.317581 0  0.629879 0.317522 0  0.59293 0.321884 0  0.568003 0.326991 0  0.55202 0.327775 0  0.546493 0.327054 0  0.542241 0.326499 0  1 0.9 0  1 0.8 0  1 0.7 0  1 0.6 0  1 0.5 0  1 0.4 0  1 0.3 0  1 0.2 0  1 0.1 0  0.9 0 0  0.8 0 0  0.7 0 0  0.6 0 0  0.5 0 0  0.4 0 0  0.3 0 0  0.2 0 0  0.1 0 0  0.1 1 0  0.2 1 0  0.3 1 0  0.4 1 0  0.5 1 0  0.6 1 0  0.7 1 0  0.8 1 0  0.9 1 0  0 0.1 0  0 0.2 0  0 0.3 0  0 0.4 0  0 0.5 0  0 0.6 0  0 0.7 0  0 0.8 0  0 0.9 0  0.535686 0.5031910000000001 0  0.753987 0.733359 0  0.167145 0.741436 0  0.173378 0.257204 0  0.733497 0.159862 0  0.554096 0.15788 0  0.849187 0.479053 0  0.488793 0.838452 0  0.138507 0.5592 0  0.30686 0.154944 0  0.348904 0.890523 0  0.058006 0.065099 0  0.06984899999999999 0.937917 0  0.93633 0.939704 0  0.934625 0.053613 0  0.343397 0.333452 0  0.473272 0.639943 0  0.433266 0.638072 0  0.415174 0.58269 0  0.533435 0.545042 0  0.390848 0.340652 0  0.53655 0.320242 0  0.127966 0.393775 0  0.83861 0.850455 0  0.635242 0.8551299999999999 0  0.852158 0.633441 0  0.653427 0.626848 0  0.861226 0.24292 0  0.166128 0.12976 0  0.216875 0.8698709999999999 0  0.458305 0.11179 0  0.84446 0.101633 0  0.202024 0.642528 0  0.644825 0.115855 0  0.671342 0.218358 0  0.251354 0.286186 0  0.262388 0.75153 0  0.063044 0.751571 0  0.068189 0.242962 0  0.435781 0.9053949999999999 0  0.934144 0.451133 0  0.568393 0.237622 0  0.814984 0.395506 0  0.752951 0.517227 0  0.456254 0.780699 0  0.073352 0.531116 0  0.337731 0.206071 0  0.363213 0.960371 0  0.330742 0.363592 0  0.516613 0.55705 0  0.369057 0.332992 0  0.500926 0.617309 0  0.498004 0.665534 0  0.412142 0.61178 0  0.454233 0.6366039999999999 0  0.422782 0.567496 0  0.541193 0.5214800000000001 0  0.439761 0.65557 0  0.5163 0.533672 0  0.414775 0.64562 0  0.40073 0.576135 0  0.430362 0.5880339999999999 0  0.385432 0.351492 0  0.400298 0.335397 0  0.398325 0.348194 0  0.528702 0.314885 0  0.540814 0.322334 0  0.534477 0.322953 0  0.619095 0.743583 0  0.885162 0.737972 0  0.08076 0.668849 0  0.90734 0.36634 0  0.09468699999999999 0.868937 0  0.759838 0.912152 0  0.901518 0.540898 0  0.747285 0.607479 0  0.229182 0.071641 0  0.06915399999999999 0.450091 0  0.244775 0.203309 0  0.076534 0.331755 0  0.897847 0.167826 0  0.578909 0.911415 0  0.07713299999999999 0.146341 0  0.477215 0.203448 0  0.922631 0.869341 0  0.517415 0.074785 0  0.297026 0.827793 0  0.7832710000000001 0.246505 0  0.74519 0.061079 0  0.36033 0.069068 0  0.210313 0.475228 0  0.859426 0.928758 0  0.5745479999999999 0.609182 0  0.243069 0.383398 0  0.283099 0.934598 0  0.417416 0.843141 0  0.643942 0.553164 0  0.112687 0.079336 0  0.281357 0.658386 0  0.765043 0.436177 0  0.611361 0.198486 0  0.234496 0.58911 0  0.206479 0.702638 0  0.679608 0.155818 0  0.62682 0.259978 0  0.690538 0.264164 0  0.448938 0.956308 0  0.808154 0.328403 0  0.379583 0.91913 0  0.308083 0.297769 0  0.312358 0.730249 0  0.563101 0.278576 0  0.435597 0.746198 0  0.385475 0.225229 0  0.572248 0.518034 0  0.357864 0.35422 0  0.497647 0.641694 0  0.458101 0.655768 0  0.360474 0.310727 0  0.467038 0.620139 0  0.47798 0.659909 0  0.41102 0.628072 0  0.48324 0.609015 0  0.427544 0.617941 0  0.388633 0.328253 0  0.405336 0.599404 0  0.408351 0.565178 0  0.42395 0.600985 0  0.431562 0.576523 0  0.424905 0.6551979999999999 0  0.398064 0.58782 0  0.427739 0.557934 0  0.5192909999999999 0.303443 0  0.53142 0.320293 0  0.5449000000000001 0.323642 0  0.537166 0.323513 0  0.153974 0.920841 0  0.9181859999999999 0.67343 0  0.759946 0.820588 0  0.5375259999999999 0.783091 0  0.816532 0.545843 0  0.813991 0.178083 0  0.836774 0.702023 0  0.149815 0.318856 0  0.662287 0.923338 0  0.680146 0.791192 0  0.708961 0.663172 0  0.9372779999999999 0.287318 0  0.574622 0.6881660000000001 0  0.5894740000000001 0.076262 0  0.502822 0.926683 0  0.222269 0.811068 0  0.380457 0.164786 0  0.15321 0.684154 0  0.458063 0.051413 0  0.161702 0.056026 0  0.199351 0.198818 0  0.298946 0.09553200000000001 0  0.902465 0.795949 0  0.121139 0.791477 0  0.906269 0.112287 0  0.056109 0.822332 0  0.512172 0.13237 0  0.940964 0.741805 0  0.888887 0.408777 0  0.354543 0.825964 0  0.808736 0.068638 0  0.068507 0.394071 0  0.719105 0.563843 0  0.247287 0.149664 0  0.293062 0.237128 0  0.240524 0.434997 0  0.141255 0.623289 0  0.945202 0.160621 0  0.502914 0.247629 0  0.144669 0.480811 0  0.665025 0.060817 0  0.728047 0.224344 0  0.861995 0.313312 0  0.200068 0.534235 0  0.253262 0.965623 0  0.893804 0.49307 0  0.604391 0.572456 0  0.947088 0.345347 0  0.439372 0.227307 0  0.629847 0.159823 0  0.273405 0.880181 0  0.302744 0.776823 0  0.781502 0.295365 0  0.275342 0.349602 0  0.7283849999999999 0.472798 0  0.229136 0.246478 0  0.807794 0.480346 0  0.709476 0.112786 0  0.275506 0.694991 0  0.771674 0.394419 0  0.449715 0.861802 0  0.419159 0.799696 0  0.674851 0.503139 0  0.280443 0.61016 0  0.572443 0.192538 0  0.393113 0.87525 0  0.405555 0.948428 0  0.330942 0.934103 0  0.540509 0.597101 0  0.312763 0.6689310000000001 0  0.254368 0.540179 0  0.595265 0.25915 0  0.606679 0.234099 0  0.657131 0.279138 0  0.722458 0.279478 0  0.333 0.308056 0  0.351529 0.246142 0  0.455714 0.7257940000000001 0  0.585239 0.295143 0  0.340062 0.72492 0  0.545593 0.293773 0  0.555449 0.545426 0  0.414311 0.737314 0  0.590854 0.502323 0  0.350507 0.368444 0  0.484423 0.625665 0  0.483899 0.674542 0  0.378137 0.317274 0  0.446416 0.646404 0  0.373532 0.347654 0  0.446876 0.619769 0  0.466106 0.666068 0  0.437545 0.609254 0  0.434988 0.565726 0  0.41462 0.656829 0  0.418803 0.556961 0  0.398425 0.327446 0  0.517803 0.310421 0  0.549516 0.322918 0  0.57701 0.842889 0  0.8291269999999999 0.773906 0  0.643235 0.684732 0  0.134281 0.207734 0  0.865997 0.055966 0  0.680959 0.723345 0  0.165229 0.8415550000000001 0  0.54558 0.959672 0  0.783726 0.656439 0  0.913315 0.595533 0  0.699439 0.860667 0  0.785839 0.125076 0  0.551673 0.037713 0  0.9200970000000001 0.223214 0  0.206406 0.299726 0  0.087064 0.596401 0  0.935644 0.394252 0  0.964557 0.252582 0  0.230124 0.928346 0  0.120579 0.271764 0  0.8572149999999999 0.524082 0  0.7670979999999999 0.5551469999999999 0  0.936094 0.507131 0  0.804064 0.59585 0  0.700565 0.608273 0  0.429773 0.174231 0  0.117746 0.727333 0  0.5389620000000001 0.730231 0  0.862761 0.359173 0  0.821444 0.284046 0  0.193552 0.35818 0  0.234923 0.505555 0  0.193209 0.421217 0  0.220144 0.755896 0  0.594015 0.131642 0  0.283813 0.195855 0  0.517519 0.213961 0  0.553509 0.639116 0  0.280391 0.378018 0  0.852183 0.436817 0  0.746983 0.197173 0  0.821806 0.221318 0  0.449853 0.828453 0  0.883758 0.453926 0  0.183484 0.589542 0  0.348384 0.129314 0  0.255254 0.838525 0  0.504849 0.798516 0  0.320344 0.863432 0  0.611669 0.525425 0  0.265864 0.804962 0  0.72056 0.521442 0  0.613372 0.6101220000000001 0  0.481262 0.881068 0  0.655778 0.191988 0  0.701921 0.196918 0  0.5658260000000001 0.5731810000000001 0  0.46914 0.240927 0  0.343219 0.173284 0  0.888786 0.278502 0  0.244113 0.6750930000000001 0  0.739546 0.417914 0  0.784023 0.355942 0  0.326805 0.265549 0  0.248616 0.6
[...]
<PointData  Scalars="u"> 
<DataArray  type="Float64"  Name="u"  format="ascii">0.0000000000000000e+00  0.0000000000000000e+00  -1.9766559896378236e-10  1.1130254964829690e-10  -2.4971438726495935e-09  -1.4253472252963231e-11  -2.4366708415864696e-11  2.8648802696191689e-14  0.0000000000000000e+00  0.0000000000000000e+00  0.0000000000000000e+00  0.0000000000000000e+00  -5.4607643781217843e-16  -1.7185196337784464e-15  -4.8463716612750927e-16  4.9434274704541492e-16  -4.3134847373354258e-15  -2.4314097532204673e-15  1.3299797906131948e-14  -9.3022232880839635e-16  9.4244529143359379e-16  2.5545412381367350e-14  3.3643257168208090e-13  -1.4189887862172922e-10  -6.9874991965299292e-10  6.1972247168160072e-11  -2.1031660701101250e-12  -2.0170497555101379e-11  -3.4793495932396729e-12  -1.4606689943339629e-10  3.4429949890342443e-10  1.5752439227207413e-12  4.8760557914747445e-13  8.1832409317786710e-16  0.0000000000000000e+00  0.0000000000000000e+00  0.0000000000000000e+00  0.0000000000000000e+00  0.0000000000000000e+00  0.0000000000000000e+00  0.0000000000000000e+00  0.0000000000000000e+00  0.0000000000000000e+00  0.0000000000000000e+00  0.0000000000000000e+00  0.0000000000000000e+00  0.0000000000000000e+00  0.0000000000000000e+00  -7.2739559411148020e-15  -2.5932401568079668e-14  -1.1250745588164141e-13  -1.1275664851495449e-12  -3.4592213008858397e-14  -3.7100182163175728e-13  -5.6013232706606250e-11  -6.0154993482641147e-11  -3.9080059000781559e-10  -1.3155329516087334e-10  -1.4500140159915189e-09  -1.8668722141742630e-11  3.2795588114634983e-08  -1.1797821217291453e-08  -1.9748259801707017e-09  -2.1588083885288189e-12  7.9871496235429479e-14  -9.3594541659396547e-10  -6.6928804539883304e-10  4.0879080174525888e-08  -1.2853706114835009e-08  -9.9853259183447710e-09  1.5925705743099769e-09  -7.0078629632131696e-09  1.2307220600606269e-09  3.7442154646528084e-09  2.3864807439967887e-13  -1.2197721475837922e-14  0.0000000000000000e+00  2.9999999999999999e-01  2.9999999999999999e-01  3.3677384666166160e-12  1.2899567079523566e-11  0.0000000000000000e+00  0.0000000000000000e+00  0.0000000000000000e+00  0.0000000000000000e+00  -1.3566547128923398e-14  -5.7149265861932350e-13  6.7897781312534235e-12  2.8222873861670104e-10  -4.8857910188285554e-12  7.6120705148004459e-11  -2.5308201208462855e-12  -3.9561109437481684e-14  0.0000000000000000e+00  0.0000000000000000e+00  0.0000000000000000e+00  0.0000000000000000e+00  0.0000000000000000e+00  0.0000000000000000e+00  -9.7569261397517562e-16  0.0000000000000000e+00  -7.3132070500722684e-15  4.9386225499827081e-16  5.2263276872477245e-13  3.2312740158460636e-12  1.7485161991021255e-13  6.2420723486945434e-12  -1.9869536018050335e-10  7.0462337573288194e-15  0.0000000000000000e+00  0.0000000000000000e+00  0.0000000000000000e+00  0.0000000000000000e+00  0.0000000000000000e+00  0.0000000000000000e+00  2.3987146224303292e-15  -1.5850680465322612e-13  -7.0335250780307475e-10  -5.3190051485483540e-10  3.5199478642643953e-08  -5.3846267109100317e-09  -2.5306840804890839e-10  -4.1863710875769299e-11  -1.4294731002851037e-08  8.2498782737207651e-09  1.5317683258254936e-08  -2.7940213425092006e-10  1.3767690567649436e-12  0.0000000000000000e+00  0.0000000000000000e+00  0.0000000000000000e+00  2.9999999999999999e-01  2.9999999999999999e-01  2.9999999999999999e-01  2.9999999999999999e-01  2.9999999999999999e-01  2.9999999999999999e-01  2.9999999999999999e-01  2.9999999999999999e-01  2.9999999999999999e-01  1.5573132745150986e-02  1.3528444728597413e-03  8.0293502947575336e-05  7.9074103165071259e-06  3.2472443349649900e-07  1.7064430688209169e-09  8.3360932083650832e-09  4.1363456826232570e-10  5.5736129003528198e-11  -9.7638521023100439e-10  -1.8686690575646499e-09  1.0159624766721615e-08  -8.2848967905043897e-09  1.7059814725782802e-07  6.7218589210653896e-06  1.0723424548481581e-04  1.6049739230158549e-03  2.2713318633817457e-02  7.4818624972518835e-13  1.3114820798396709e-11  7.1173054859837047e-12  4.5006544354202670e-13  3.7176780861222582e-13  8.2168298724181784e-12  8.5351405084249103e-10  1.5744170644611736e-09  -1.2035062059121705e-10  4.8455566991781923e-12  6.6764009850484307e-03  4.1570225648519411e-08  4.2892942258085214e-09  3.9326587532396672e-03  9.7316073678967483e-05  3.5220239268811945e-02  3.2813861004526721e-05  -7.1752644671984032e-14  9.7874759867806821e-07  6.3107233511867759e-06  4.8358948143053745e-12  -7.1909083800598383e-11  -5.1400686506027624e-02  -4.6066755751696935e-02  -3.9598552785808296e-14  9.2521514581271682e-13  0.0000000000000000e+00  0.0000000000000000e+00  -5.6120256053156768e-12  0.0000000000000000e+00  7.8860036460348821e-16  1.6133753635571708e-13  7.5023846244884401e-03  3.7555805990881159e-04  5.7872470456246050e-02  4.1723175304238635e-05  3.6384866604952021e-02  6.7872745279583859e-09  6.6885377996547463e-07  1.3189402122171882e-05  7.8395294265698225e-03  -3.5180216289837162e-11  5.8354852404703898e-04  3.8806221131011231e-04  -7.9098746060414235e-10  1.1814826443550254e-09  1.1884774083342152e-08  5.5046761090649117e-10  1.4143823322109216e-05  2.1431394035269574e-01  1.8648542892825353e-06  2.7802020079165197e-03  7.9784381873560406e-04  -5.2699851446522967e-07  1.8662626073508106e-13  1.4314704276348786e-07  1.7391045060343897e-07  -9.8946489260960758e-15  -1.2139763528477835e-11  1.5801001644765533e-15  7.2957415165575166e-12  -2.9487865086118844e-12  0.0000000000000000e+00  3.9765801124955639e-14  0.0000000000000000e+00  2.3677987618191993e-11  0.0000000000000000e+00  -1.3580742280516742e-12  0.0000000000000000e+00  0.0000000000000000e+00  0.0000000000000000e+00  0.0000000000000000e+00  0.0000000000000000e+00  0.0000000000000000e+00  1.3911518353523358e-15  3.6469562733119790e-16  0.0000000000000000e+00  2.3698732193877753e-04  7.4705747104617734e-02  2.9520008753954963e-10  1.0909652677544204e-01  7.6482514609044126e-09  -4.8959591280795434e-05  1.2577781366911511e-01  3.7298538708575540e-03  -7.3485355475643255e-09  1.1376216487790881e-15  9.6717453150855331e-08  -7.8531088025794775e-12  6.1026490265514113e-02  4.6231162458806632e-05  -1.7471531278356991e-11  2.7549986587268253e-06  3.0289822140202531e-02  6.2596284489794268e-06  1.3207654031705519e-06  4.9864143107873505e-03  3.2690489607626336e-04  -1.2848580982322562e-08  0.0000000000000000e+00  -3.4884896937648468e-03  -2.7953777616394180e-07  -1.1199962349463862e-13  2.7116222322936082e-07  7.4815705151984941e-06  -3.1801958340268658e-06  -1.5042592258792209e-11  -3.1177856687760165e-12  9.7325174217473449e-05  1.5936773790300150e-04  -9.2750003151123201e-13  -2.0300516499236406e-10  1.4299589643146716e-03  -6.4386833403814655e-06  -1.4936695027802012e-05  3.4387812408050715e-07  9.7288680321272014e-04  4.6264590411410882e-06  4.2827660744195342e-12  7.8758249093953222e-10  -1.5387219201913990e-09  -4.7548714713320376e-10  -3.3610600168836007e-08  -1.2471071648941351e-09  -6.8562441417030225e-15  -9.7569047706207515e-10  6.4695677393122894e-14  -3.4849694099571370e-14  1.3190692721378607e-13  7.7740467722138733e-12  0.0000000000000000e+00  -6.4507325895008853e-13  0.0000000000000000e+00  0.0000000000000000e+00  0.0000000000000000e+00  0.0000000000000000e+00  0.0000000000000000e+00  0.0000000000000000e+00  0.0000000000000000e+00  0.0000000000000000e+00  0.0000000000000000e+00  -1.4451247643643697e-13  0.0000000000000000e+00  0.0000000000000000e+00  0.0000000000000000e+00  -1.3246852257827441e-08  1.6104450564106787e-01  3.3698703454220096e-03  3.0559462006947575e-05  1.7559344691660966e-02  1.6506442732703595e-02  3.7386247574582449e-02  2.9799202421896804e-11  3.2163496547146631e-05  1.2815718765344089e-03  2.0848349616343648e-03  1.8208710528349151e-01  -2.4854048283563820e-06  4.8242636601647506e-05  9.6788994182172445e-06  5.0326510474113070e-07  2.2144161086158335e-06  9.4488098591369201e-10  -3.4179185139689559e-07  -2.9945437754446700e-10  5.5200968707682947e-08  9.1984430127764117e-08  7.7125488288389471e-02  7.5420422327099698e-08  2.5691830757693775e-02  7.4834509517699173e-09  5.1005676116712398e-05  1.9057679928388233e-01  4.2952678210419822e-02  8.6057655176136205e-07  1.1746724165088648e-03  -5.5306189684434442e-15  3.4971499916403839e-04  2.0747356093268091e-07  7.6077461704679543e-09  -3.1060527221088606e-15  -2.3928920643924168e-11  1.3998152715777612e-01  -7.5716850599760592e-08  5.4645798351088362e-15  9.6978083257894833e-05  1.5331661172003660e-03  3.8516318334238124e-02  -2.6966225594347452e-15  1.3029622138381827e-08  9.2775561776180071e-02  -6.8054788838343038e-07  2.3612181500473772e-01  -2.0492838500285457e-07  4.8914078434569841e-04  2.0719198397059644e-06  -2.3319493545992022e-08  1.3668295353432968e-04  -1.0105657796071858e-12  1.2766938540365033e-05  1.4679160427292762e-08  7.8993645789827305e-03  1.5746694032888588e-03  8.9231914922483831e-11  2.1041865768318498e-05  2.3443802087945127e-05  -1.2022747333438778e-07  -6.1611460001920588e-07  5.7657375836278075e-14  7.0487186758195624e-05  1.1594525310922504e-05  9.0404968211094433e-07  6.9293067643828986e-07  -5.2757000794897241e-09  3.9441359260920988e-13  -4.1843988685179070e-14  -2.4183939773564680e-06  1.2119393755345648e-05  3.3551889481651534e-06  2.2308290904605482e-05  8.1975913174671715e-13  -3.7036810323549323e-09  -4.1145298476249318e-09  3.2925405685203907e-08  -9.6126583641236867e-12  6.3516059509246211e-10  -1.2830240395909439e-09  -1.6780013690523904e-10  -2.1716808698739464e-09  0.0000000000000000e+00  -2.5539990374339621e-11  2.6202136923786704e-12  -1.4476440689713526e-15  -7.0697418542506356e-16  0.0000000000000000e+00  0.0000000000000000e+00  -6.9012923007356713e-15  0.0000000000000000e+00  0.0000000000000000e+00  0.0000000000000000e+00  0.0000000000000000e+00  0.0000000000000000e+00  2.0960372221951725e-15  0.0000000000000000e+00  1.8010052244922607e-04  2.0244757566462431e-02  2.4908219685960221e-04  7.1666233570786912e-09  -9.9667309209800522e-04  1.2993245970330716e-03  2.3621231441112877e-07  3.5747606945053869e-06  1.4061499843939734e-02  1.6602730720785452e-01  6.8345116244071904e-04  5.9478438972186878e-03  1.3286337209995764e-06  1.2164755381465148e-01  1.9572554389035030e-10  -6.1461134077068134e-13  1.6299202078805833e-01  2.6326248287377330e-01  4.0080619658202742e-08  6.2494186986131383e-10  4.4310953258223616e-02  3.3874105243420138e-03  1.8203578141580232e-01  1.8830452827967303e-02  6.5140540391581472e-04  3.9464528567829806e-06  1.3915308596314583e-08  -3.5045648977435390e-06  1.5266403166617915e-02  9.9125372431704030e-03  -4.6995214759681218e-13  0.0000000000000000e+00  -3.4755612841878221e-15  5.4136899333359525e-08  2.6312965606913372e-04  2.2097262130143971e-07  5.2031280451275659e-06  -9.3594646699132417e-08  -8.7274070688381807e-15  2.9210760770971986e-02  3.1423556048983245e-03  1.4777488017515040e-02  8.9060935715288050e-06  8.9492465480278213e-02  -2.0257233254316819e-13  1.9735865697235837e-06  1.1712699082553207e-06  1.5094440992590601e-05  3.8052019720446043e-06  -1.8967084274358030e-07  5.2177852746604712e-07  1.2252581388877437e-04  7.7784675834594722e-08  3.7070805215045488e-05  4.6897475561546163e-04  1.1913444534449459e-03  -7.9896015587517846e-09  -1.3509461552043773e-07  8.9446900311494404e-07  6.1976639175588620e-02  -2.0413627102891338e-10  -1.3168383605524269e-06  8.9698865027752208e-05  -6.3432800627436151e-10  6.8505616811539346e-13  6.1567235428324580e-04  6.6069887467894866e-04  -3.3710496041983589e-14  -4.8235398521685404e-08  -1.4174772856902593e-07  1.3431689541432315e-06  -3.4539799336262415e-15  5.0798977992760201e-08  2.5748171198797209e-05  1.0006649789242029e-04  4.3338944822152694e-06  -3.3436916012146829e-13  8.6396919042136919e-06  1.7412290256117063e-05  -5.2271602478190271e-16  -2.9598292407894863e-14  2.7955033103259470e-07  9.1579610702257453e-05  -7.3957362925533086e-10  -1.5344803530084126e-09  -1.0317415284986469e-09  -6.9402899814395099e-09  -1.8264097970467326e-09  1.0335129031580308e-09  -1.7380827304577584e-10  1.3509063368709287e-07  -9.0357349552563838e-07  -4.0848404832182124e-11  1.2319257298583290e-05  -1.1323816865534516e-08  1.0180442923488801e-06  -2.4006185945945338e-09  3.0294458277536753e-05  -1.2247559593334309e-08  -3.7908203318247182e-09  -9.6017705209037451e-07  6.4295256761600975e-10  -6.9651838622439395e-06  7.6098282664064653e-10  -5.0494165428285824e-10  -1.3024241050893765e-12  4.2354196327290160e-12  -4.5231575690922338e-13  -3.6425611638170531e-09  -3.2647107060841372e-16  1.2653506447666442e-12  0.0000000000000000e+00  0.0000000000000000e+00  2.5679242366149502e-01  3.5483851010710787e-04  6.0890844520690324e-02  7.2878750180533093e-05  4.0027070473168821e-02  1.8697508818515766e-07  3.0546328164738048e-05  4.8712579823421851e-05  7.2828707691364333e-05  9.3589525568249228e-05  1.5234338615454077e-02  2.3551173325362649e-06  -1.0530093500310695e-06  -1.4705293940312661e-11  4.4614135309229897e-06  8.2795760854681901e-03  1.8008634209599806e-05  1.9026109987046894e-04  4.0186355103205729e-05  3.0927159805300035e-09  9.8853434166165641e-02  6.9450014110277015e-07  2.4074318525711497e-05  2.9448643909901343e-06  0.0000000000000000e+00  6.5261052944330083e-03  1.5028497051466680e-02  -4.3322852080087166e-09  3.1711847726039514e-03  1.1011734706645926e-02  -1.7003691137200332e-06  -4.7962875519249130e-15  1.4212366446149890e-03  -8.0844877916303580e-09  7.1921870186182830e-04  2.8305475045575090e-07  4.8954395224515028e-03  3.3215037368745135e-05  2.4040772233715577e-02  3.3695787074237201e-04  3.5978936309310897e-07  1.6088803680298594e-07  1.0121189918118428e-07  6.9627950006562451e-08  -4.0951419101473526e-08  4.5999834419673561e-09  1.2968489316587017e-08  3.4087188789757431e-03  1.4111123266363718e-03  3.8582499202893987e-09  -1.6710498837866335e-09  7.4524838044039160e-05  1.6452992887529905e-09  4.9160030860546086e-06  -6.0717713073665517e-14  7.0358051527678878e-03  3.5318165902139325e-08  -2.9199158011975497e-10  -2.1721050628081481e-08  -1.6422590413888806e-05  2.4467079392096850e-06  4.4829175853154465e-06  1.7847116602509762e-07  1.3374640022426787e-14  1.4702162807417061e-05  4.3094110440434965e-04  -2.9858442598772965e-07  -4.6444089794046087e-09  1.7988787930876402e-11  -8.7704026488177266e-08  1.0476871756765693e-05  9.4417968587869408e-07  -9.2996927958415108e-14  -4.5858544034306804e-07  2.6832158587628682e-09  -6.5150111802981348e-08  8.3315611855544648e-05  -1.6995829724481906e-07  -4.1625641268022342e-05  -3.1117351786208520e-08  -4.8903607907471742e-08  -9.5119911403573621e-12  2.5878941276098747e-09  -1.8395383741447020e-09  -4.2867449782864792e-08  -2.1286373127121522e-10  5.8893526489024419e-09  4.3722529453645617e-07  -1.1508866241428615e-07  1.8912520001073444e-10  -9.7793453428302941e-09  5.4737491424590768e-09  8.0875590220351344e-08  1.1205410402240111e-11  -1.8145751276150287e-13  -8.7609584993311012e-11  -5.4988928121757968e-07  8.8350611737922533e-12  9.6444041558879948e-09  4.0051441558538432e-07  -4.7117038879284478e-11  2.6492602511173892e-09  4.3003926811682678e-11  3.9069378704461834e-14  -9.5925669890642573e-16  4.0648761242667099e-14  2.1488038889968484e-07  2.2547443340422250e-02  1.2599037663256019e-04  9.0054716340389674e-07  4.1716476866253526e-03  -2.1786037377460501e-15  9.2334907226292978e-06  3.4786019695088788e-07  1.1474464080240313e-07  8.9510681270866550e-03  2.7746805902319903e-03  7.8311453715348596e-06  4.5919995367688839e-03  1.3264054964627440e-02  8.6063991351474475e-16  -2.4617241286705739e-07  -8.2236504658550855e-10  9.9510686422219450e-08  9.0853482043159723e-07  -1.4240501057301052e-08  -1.2058006047448580e-08  1.3782721145416630e-04  -2.3934182536027946e-07  3.3494755387958908e-09  -9.1817247725161639e-08  -1.8150705142796825e-08  -7.5618229103137808e-09  2.2433056571831889e-10  -3.2931234444206061e-09  1.0358693873218534e-05  1.0548075296910814e-03  5.0955099727620499e-09  5.5587069466790282e-04  2.8036697669535566e-03  1.3821514665339077e-06  3.5755698988265291e-08  2.4402636334344855e-15  5.6836749609379011e-08  3.2068779372416550e-04  3.8318320955294017e-08  -4.2529101394157227e-10  5.4201576488903018e-06  1.2148891855468282e-06  -3.5769803937125912e-06  -1.7416546062212900e-10  1.1471035184682350e-06  -8.1078611559360330e-07  -1.8143368327842349e-10  -2.8255307638974619e-08  1.3638958037565919e-05  4.6031534984966480e-04  2.3279014156109813e-04  1.4175407243393243e-08  3.1343857396872321e-08  -1.2618755247962828e-07  -1.0290485579328173e-07  -3.4109427933019243e-09  5.0449632178922745e-10  3.6624711046635512e-10  -1.2912232321081946e-09  -2.4051849564631899e-08  -3.0693950608656016e-12  1.7414494651101417e-08  -1.6868025506130113e-09  -2.9152836653172510e-09  4.2651859387185457e-11  -2.4983773159435709e-10  -3.5618613115796103e-08  -2.4144668670363787e-09  -2.3132822528467122e-13  -9.2099079573320721e-06  3.6596943085963666e-05  -1.7196618700971955e-06  1.4479906309980664e-09  1.2567319927619933e-09  -3.1106488721535995e-07  4.5430129479389642e-09  -8.4229055635491332e-12  1.9804768813940554e-10  -1.0231666839331825e-13  3.4100373923769346e-13  -2.6829832024866236e-13  1.6133788652052765e-04  -1.6465444478881969e-07  2.3584959580561309e-07  -1.7232666175168523e-06  -1.1954941265063665e-07  1.8496794424016812e-07  -3.1391704699474735e-09  5.9946110527805842e-11  8.2817231929170338e-08  -3.1351085433239616e-08  2.3422163625799251e-05  -8.8825345116797383e-08  6.4676771969792021e-06  6.5556956677030446e-04  -3.4605460659575718e-10  3.8267643822194498e-08  -1.9605315730697873e-08  -5.1446035070543732e-10  -1.5278870592835434e-08  -1.5297698178866001e-08  -1.0351934548437379e-08  -4.4946761464700037e-12  3.2659174019232347e-05  -2.9716197556460369e-08  -7.5414714138935055e-10  -1.2688097501064029e-10  4.3720570295876584e-09  -1.2102654292360456e-08  4.6544985021250200e-08  -1.3226814802807818e-11  7.5472682362042358e-10  -1.0037171247987174e-11  -5.9233041514917499e-12  2.8099911213735747e-11  2.8209041951537123e-13  4.0989038150919761e-11  6.2683087284847749e-14  -6.0318172838767891e-08  -1.5007391482446497e-08  4.0155907321270262e-09  -4.4138901210328002e-08  9.4843510371683609e-05  9.8058049508481576e-10  -9.1240088803399597e-08  9.3739055467528862e-11  -1.2330124856490890e-07  -4.8306765543506739e-10  -2.5834432452971941e-13  2.0768255263608513e-11  5.7482279788286393e-09  -2.7298497469305298e-08  6.3395211042739765e-15  1.5864522471224678e-14  5.6808974980634949e-15  -4.4424560853343103e-10  8.7493175841125098e-11  0.0000000000000000e+00  0.0000000000000000e+00  0.0000000000000000e+00  0.0000000000000000e+00  0.0000000000000000e+00  4.9280627588575501e-16  7.0444353844570849e-14  1.0236783731036836e-12  3.0066844762775050e-11  2.9800825190238068e-11  2.7549788991978032e-10  -2.1553414371163341e-10  1.2434558940392415e-10  1.0992454525660655e-10  1.5300454629903202e-11  -5.0872172021160438e-11  -4.7772800486653542e-12  3.5422049616140674e-14  1.4965584836494938e-14  -1.2312569137160622e-15  0.0000000000000000e+00  0.0000000000000000e+00  0.0000000000000000e+00  0.0000000000000000e+00  0.0000000000000000e+00  0.0000000000000000e+00  0.0000000000000000e+00  0.0000000000000000e+00  0.0000000000000000e+00  -5.6148813438504981e-16  8.3255366920913422e-16  -1.4536371047422815e-15  -3.7842275093776273e-16  -4.9886400806384322e-16  8.5765774737266762e-16  -5.7015304216057933e-16  -8.4836417917434463e-16  9.7586150104992126e-15  7.0287848465936187e-15  3.7688861245306296e-15  2.1721456361375358e-15  2.1212277467982782e-15  -1.9999485190569140e-15  -2.4065861406049896e-13  -1.9012429988499257e-13  3.8282341556522096e-12  -1.7597599589206020e-11  -1.9610851671643015e-10  -9.9636361939424231e-11  3.0185869776523226e-11  1.7336295032080969e-12  7.7803113054903220e-13  1.5722072236862494e-12  5.5948294639327495e-12  2.0098053493664399e-11  -2.9263850309277110e-10  -3.8268814247094021e-10  1.9694119868370470e-11  -4.7667934412010230e-13  -3.477069108