<?xml version="1.0"?>
<VTKFile type="UnstructuredGrid"  version="0.1"  >
<UnstructuredGrid>
<Piece  NumberOfPoints="35" NumberOfCells="48">
<Points>
<DataArray  type="Float64"  NumberOfComponents="3"  format="ascii">0 0 0  0.1666666666666667 0 0  0.3333333333333333 0 0  0.5 0 0  0.6666666666666666 0 0  0.8333333333333334 0 0  1 0 0  0 0.25 0  0.1666666666666667 0.25 0  0.3333333333333333 0.25 0  0.5 0.25 0  0.6666666666666666 0.25 0  0.8333333333333334 0.25 0  1 0.25 0  0 0.5 0  0.1666666666666667 0.5 0  0.3333333333333333 0.5 0  0.5 0.5 0  0.6666666666666666 0.5 0  0.8333333333333334 0.5 0  1 0.5 0  0 0.75 0  0.1666666666666667 0.75 0  0.3333333333333333 0.75 0  0.5 0.75 0  0.6666666666666666 0.75 0  0.8333333333333334 0.75 0  1 0.75 0  0 1 0  0.1666666666666667 1 0  0.3333333333333333 1 0  0.5 1 0  0.6666666666666666 1 0  0.8333333333333334 1 0  1 1 0  </DataArray>
</Points>
<Cells>
<DataArray  type="UInt32"  Name="connectivity"  format="ascii">0 1 8  0 7 8  1 2 9  1 8 9  2 3 10  2 9 10  3 4 11  3 10 11  4 5 12  4 11 12  5 6 13  5 12 13  7 8 15  7 14 15  8 9 16  8 15 16  9 10 17  9 16 17  10 11 18  10 17 18  11 12 19  11 18 19  12 13 20  12 19 20  14 15 22  14 21 22  15 16 23  15 22 23  16 17 24  16 23 24  17 18 25  17 24 25  18 19 26  18 25 26  19 20 27  19 26 27  21 22 29  21 28 29  22 23 30  22 29 30  23 24 31  23 30 31  24 25 32  24 31 32  25 26 33  25 32 33  26 27 34  26 33 34  </DataArray>
<DataArray  type="UInt32"  Name="offsets"  format="ascii">3 6 9 12 15 18 21 24 27 30 33 36 39 42 45 48 51 54 57 60 63 66 69 72 75 78 81 84 87 90 93 96 99 102 105 108 111 114 117 120 123 126 129 132 135 138 141 144 </DataArray>
<DataArray  type="UInt8"  Name="types"  format="ascii">5 5 5 5 5 5 5 5 5 5 5 5 5 5 5 5 5 5 5 5 5 5 5 5 5 5 5 5 5 5 5 5 5 5 5 5 5 5 5 5 5 5 5 5 5 5 5 5 </DataArray>
</Cells>
<PointData  Scalars="u"> 
<DataArray  type="Float64"  Name="u"  format="ascii">6.7599999999999989e+00  6.7877777777777766e+00  6.8711111111111105e+00  7.0099999999999980e+00  7.2044444444444435e+00  7.4544444444444427e+00  7.7599999999999989e+00  6.9474999999999989e+00  6.9752777777777739e+00  7.0586111111111034e+00  7.1974999999999874e+00  7.3919444444444302e+00  7.6419444444444355e+00  7.9474999999999989e+00  7.5099999999999989e+00  7.5377777777777766e+00  7.6211111111111052e+00  7.7599999999999874e+00  7.9544444444444258e+00  8.2044444444444284e+00  8.5099999999999980e+00  8.4474999999999980e+00  8.4752777777777819e+00  8.5586111111111141e+00  8.6974999999999909e+00  8.8919444444444284e+00  9.1419444444444302e+00  9.4474999999999980e+00  9.7599999999999980e+00  9.7877777777777766e+00  9.8711111111111087e+00  1.0009999999999998e+01  1.0204444444444443e+01  1.0454444444444443e+01  1.0759999999999998e+01  </DataArray> 
</PointData> 
</Piece>
</UnstructuredGrid>
</VTKFile>